file 17517850 1425921287                                        
version 2
run MCoA_ALL-0-20150309-18:14:38-20473
attr configname MCoA_ALL
attr datetime 20150309-18:14:38
attr experiment MCoA_ALL
attr inifile VoIPMCoACN.ini
attr iterationvars ""
attr iterationvars2 $repetition=0
attr measurement ""
attr network VoIPMCoAMulti
attr processid 20473
attr repetition 0
attr replication #0
attr resultdir results
attr runnumber 0
attr seedset 0

vector 0  VoIPMCoAMulti.Ra.networkLayer.ipv6  IPv6Active_Event  ETV
vector 48  VoIPMCoAMulti.CN[0].networkLayer.ipv6  IPv6Active_Event  ETV
vector 70  VoIPMCoAMulti.HA.networkLayer.ipv6  IPv6Active_Event  ETV
vector 124  VoIPMCoAMulti.MN[0].networkLayer.ipv6  IPv6Active_Event  ETV
vector 144  VoIPMCoAMulti.MN[1].networkLayer.ipv6  IPv6Active_Event  ETV
vector 150  VoIPMCoAMulti.R1.networkLayer.ipv6  IPv6Active_Event  ETV
vector 229  VoIPMCoAMulti.Rb.networkLayer.ipv6  IPv6Active_Event  ETV
vector 103  VoIPMCoAMulti.AP_HA.wlan.mac  RadioState  ETV
attr enum  "IDLE=0, RECV=1, SLEEP=3, TRANSMIT=2"
attr enumname  RadioState
vector 102  VoIPMCoAMulti.AP_HA.wlan.mac  State  ETV
attr enum  "BACKOFF=3, DEFER=1, IDLE=0, RECEIVE=8, WAITACK=4, WAITBROADCAST=5, WAITCTS=6, WAITDIFS=2, WAITSIFS=7"
attr enumname  Ieee80211Mac
vector 128  VoIPMCoAMulti.MN[0].wlan[0].mac  RadioState  ETV
attr enum  "IDLE=0, RECV=1, SLEEP=3, TRANSMIT=2"
attr enumname  RadioState
vector 127  VoIPMCoAMulti.MN[0].wlan[0].mac  State  ETV
attr enum  "BACKOFF=3, DEFER=1, IDLE=0, RECEIVE=8, WAITACK=4, WAITBROADCAST=5, WAITCTS=6, WAITDIFS=2, WAITSIFS=7"
attr enumname  Ieee80211Mac
vector 133  VoIPMCoAMulti.MN[0].wlan[1].mac  RadioState  ETV
attr enum  "IDLE=0, RECV=1, SLEEP=3, TRANSMIT=2"
attr enumname  RadioState
vector 132  VoIPMCoAMulti.MN[0].wlan[1].mac  State  ETV
attr enum  "BACKOFF=3, DEFER=1, IDLE=0, RECEIVE=8, WAITACK=4, WAITBROADCAST=5, WAITCTS=6, WAITDIFS=2, WAITSIFS=7"
attr enumname  Ieee80211Mac
vector 138  VoIPMCoAMulti.MN[0].wlan[2].mac  RadioState  ETV
attr enum  "IDLE=0, RECV=1, SLEEP=3, TRANSMIT=2"
attr enumname  RadioState
vector 137  VoIPMCoAMulti.MN[0].wlan[2].mac  State  ETV
attr enum  "BACKOFF=3, DEFER=1, IDLE=0, RECEIVE=8, WAITACK=4, WAITBROADCAST=5, WAITCTS=6, WAITDIFS=2, WAITSIFS=7"
attr enumname  Ieee80211Mac
vector 148  VoIPMCoAMulti.MN[1].wlan[0].mac  RadioState  ETV
attr enum  "IDLE=0, RECV=1, SLEEP=3, TRANSMIT=2"
attr enumname  RadioState
vector 147  VoIPMCoAMulti.MN[1].wlan[0].mac  State  ETV
attr enum  "BACKOFF=3, DEFER=1, IDLE=0, RECEIVE=8, WAITACK=4, WAITBROADCAST=5, WAITCTS=6, WAITDIFS=2, WAITSIFS=7"
attr enumname  Ieee80211Mac
vector 197  VoIPMCoAMulti.AP_1.wlan.mac  RadioState  ETV
attr enum  "IDLE=0, RECV=1, SLEEP=3, TRANSMIT=2"
attr enumname  RadioState
vector 196  VoIPMCoAMulti.AP_1.wlan.mac  State  ETV
attr enum  "BACKOFF=3, DEFER=1, IDLE=0, RECEIVE=8, WAITACK=4, WAITBROADCAST=5, WAITCTS=6, WAITDIFS=2, WAITSIFS=7"
attr enumname  Ieee80211Mac
vector 215  VoIPMCoAMulti.AP_2.wlan.mac  RadioState  ETV
attr enum  "IDLE=0, RECV=1, SLEEP=3, TRANSMIT=2"
attr enumname  RadioState
vector 214  VoIPMCoAMulti.AP_2.wlan.mac  State  ETV
attr enum  "BACKOFF=3, DEFER=1, IDLE=0, RECEIVE=8, WAITACK=4, WAITBROADCAST=5, WAITCTS=6, WAITDIFS=2, WAITSIFS=7"
attr enumname  Ieee80211Mac
vector 43  VoIPMCoAMulti.CN[0].udpApp[0]  "MCOA VIDEO Packet Sent"  ETV
vector 165  VoIPMCoAMulti.R1.eth[1].queue  "queue length"  ETV
vector 85  VoIPMCoAMulti.HA.eth[1].queue  "queue length"  ETV
vector 179  VoIPMCoAMulti.R1.eth[2].queue  "queue length"  ETV
vector 259  VoIPMCoAMulti.CN[0].networkLayer.neighbourDiscovery  "Starting DAD"  ETV
vector 312  VoIPMCoAMulti.Rb.networkLayer.neighbourDiscovery  "Starting DAD"  ETV
vector 258  VoIPMCoAMulti.Ra.networkLayer.neighbourDiscovery  "Starting DAD"  ETV
vector 311  VoIPMCoAMulti.R1.networkLayer.neighbourDiscovery  "Starting DAD"  ETV
vector 285  VoIPMCoAMulti.MN[0].networkLayer.neighbourDiscovery  "Starting DAD"  ETV
vector 272  VoIPMCoAMulti.HA.networkLayer.neighbourDiscovery  "Starting DAD"  ETV
vector 298  VoIPMCoAMulti.MN[1].networkLayer.neighbourDiscovery  "Starting DAD"  ETV
vector 3  VoIPMCoAMulti.Ra.eth[0].mac  framesSent  ETV
vector 5  VoIPMCoAMulti.Ra.eth[0].mac  bytesSent  ETV
vector 17  VoIPMCoAMulti.Ra.eth[1].mac  framesSent  ETV
vector 19  VoIPMCoAMulti.Ra.eth[1].mac  bytesSent  ETV
vector 31  VoIPMCoAMulti.Ra.eth[2].mac  framesSent  ETV
vector 33  VoIPMCoAMulti.Ra.eth[2].mac  bytesSent  ETV
vector 51  VoIPMCoAMulti.CN[0].eth[0].mac  framesSent  ETV
vector 53  VoIPMCoAMulti.CN[0].eth[0].mac  bytesSent  ETV
vector 73  VoIPMCoAMulti.HA.eth[0].mac  framesSent  ETV
vector 75  VoIPMCoAMulti.HA.eth[0].mac  bytesSent  ETV
vector 87  VoIPMCoAMulti.HA.eth[1].mac  framesSent  ETV
vector 89  VoIPMCoAMulti.HA.eth[1].mac  bytesSent  ETV
vector 153  VoIPMCoAMulti.R1.eth[0].mac  framesSent  ETV
vector 155  VoIPMCoAMulti.R1.eth[0].mac  bytesSent  ETV
vector 167  VoIPMCoAMulti.R1.eth[1].mac  framesSent  ETV
vector 169  VoIPMCoAMulti.R1.eth[1].mac  bytesSent  ETV
vector 181  VoIPMCoAMulti.R1.eth[2].mac  framesSent  ETV
vector 183  VoIPMCoAMulti.R1.eth[2].mac  bytesSent  ETV
vector 232  VoIPMCoAMulti.Rb.eth[0].mac  framesSent  ETV
vector 234  VoIPMCoAMulti.Rb.eth[0].mac  bytesSent  ETV
vector 246  VoIPMCoAMulti.Rb.eth[1].mac  framesSent  ETV
vector 248  VoIPMCoAMulti.Rb.eth[1].mac  bytesSent  ETV
vector 74  VoIPMCoAMulti.HA.eth[0].mac  framesReceivedOK  ETV
vector 76  VoIPMCoAMulti.HA.eth[0].mac  bytesReceivedOK  ETV
vector 80  VoIPMCoAMulti.HA.eth[0].mac  framesPassedToHL  ETV
vector 154  VoIPMCoAMulti.R1.eth[0].mac  framesReceivedOK  ETV
vector 156  VoIPMCoAMulti.R1.eth[0].mac  bytesReceivedOK  ETV
vector 160  VoIPMCoAMulti.R1.eth[0].mac  framesPassedToHL  ETV
vector 4  VoIPMCoAMulti.Ra.eth[0].mac  framesReceivedOK  ETV
vector 6  VoIPMCoAMulti.Ra.eth[0].mac  bytesReceivedOK  ETV
vector 10  VoIPMCoAMulti.Ra.eth[0].mac  framesPassedToHL  ETV
vector 106  VoIPMCoAMulti.AP_HA.eth[0]  framesReceivedOK  ETV
vector 108  VoIPMCoAMulti.AP_HA.eth[0]  bytesReceivedOK  ETV
vector 112  VoIPMCoAMulti.AP_HA.eth[0]  framesPassedToHL  ETV
vector 18  VoIPMCoAMulti.Ra.eth[1].mac  framesReceivedOK  ETV
vector 20  VoIPMCoAMulti.Ra.eth[1].mac  bytesReceivedOK  ETV
vector 24  VoIPMCoAMulti.Ra.eth[1].mac  framesPassedToHL  ETV
vector 200  VoIPMCoAMulti.AP_1.eth[0]  framesReceivedOK  ETV
vector 202  VoIPMCoAMulti.AP_1.eth[0]  bytesReceivedOK  ETV
vector 206  VoIPMCoAMulti.AP_1.eth[0]  framesPassedToHL  ETV
vector 218  VoIPMCoAMulti.AP_2.eth[0]  framesReceivedOK  ETV
vector 220  VoIPMCoAMulti.AP_2.eth[0]  bytesReceivedOK  ETV
vector 224  VoIPMCoAMulti.AP_2.eth[0]  framesPassedToHL  ETV
vector 99  VoIPMCoAMulti.AP_HA.relayUnit  "buffer level"  ETV
vector 193  VoIPMCoAMulti.AP_1.relayUnit  "buffer level"  ETV
vector 211  VoIPMCoAMulti.AP_2.relayUnit  "buffer level"  ETV
vector 100  VoIPMCoAMulti.AP_HA.wlan.mgmt  "queue length"  ETV
vector 194  VoIPMCoAMulti.AP_1.wlan.mgmt  "queue length"  ETV
vector 212  VoIPMCoAMulti.AP_2.wlan.mgmt  "queue length"  ETV
vector 233  VoIPMCoAMulti.Rb.eth[0].mac  framesReceivedOK  ETV
vector 235  VoIPMCoAMulti.Rb.eth[0].mac  bytesReceivedOK  ETV
vector 239  VoIPMCoAMulti.Rb.eth[0].mac  framesPassedToHL  ETV
vector 32  VoIPMCoAMulti.Ra.eth[2].mac  framesReceivedOK  ETV
vector 34  VoIPMCoAMulti.Ra.eth[2].mac  bytesReceivedOK  ETV
vector 38  VoIPMCoAMulti.Ra.eth[2].mac  framesPassedToHL  ETV
vector 247  VoIPMCoAMulti.Rb.eth[1].mac  framesReceivedOK  ETV
vector 249  VoIPMCoAMulti.Rb.eth[1].mac  bytesReceivedOK  ETV
vector 253  VoIPMCoAMulti.Rb.eth[1].mac  framesPassedToHL  ETV
vector 52  VoIPMCoAMulti.CN[0].eth[0].mac  framesReceivedOK  ETV
vector 54  VoIPMCoAMulti.CN[0].eth[0].mac  bytesReceivedOK  ETV
vector 58  VoIPMCoAMulti.CN[0].eth[0].mac  framesPassedToHL  ETV
vector 149  VoIPMCoAMulti.MN[1].wlan[0].radio  "MAC loss rate"  ETV
vector 105  VoIPMCoAMulti.AP_HA.eth[0]  framesSent  ETV
vector 107  VoIPMCoAMulti.AP_HA.eth[0]  bytesSent  ETV
vector 88  VoIPMCoAMulti.HA.eth[1].mac  framesReceivedOK  ETV
vector 90  VoIPMCoAMulti.HA.eth[1].mac  bytesReceivedOK  ETV
vector 94  VoIPMCoAMulti.HA.eth[1].mac  framesPassedToHL  ETV
vector 117  VoIPMCoAMulti.MN[0].udpApp[0]  "MCOA VIDEO Packet Rcv"  ETV
vector 119  VoIPMCoAMulti.MN[0].udpApp[0]  "MCOA VIDEO Delay"  ETV
vector 118  VoIPMCoAMulti.MN[0].udpApp[0]  "MCOA VIDEO Packet Lost"  ETV
vector 129  VoIPMCoAMulti.MN[0].wlan[0].radio  "MAC loss rate"  ETV
vector 49  VoIPMCoAMulti.CN[0].eth[0].queue  "queue length"  ETV
vector 256  VoIPMCoAMulti.Rb.eth[1].mac  collisions  ETV
vector 257  VoIPMCoAMulti.Rb.eth[1].mac  backoffs  ETV
vector 61  VoIPMCoAMulti.CN[0].eth[0].mac  collisions  ETV
vector 46  VoIPMCoAMulti.CN[0].pingApp  "PING: Ping Request"  ETV
vector 47  VoIPMCoAMulti.CN[0].pingApp  "PING: Ping Reply"  ETV
vector 44  VoIPMCoAMulti.CN[0].pingApp  pingRTT  ETV
vector 104  VoIPMCoAMulti.AP_HA.wlan.radio  "MAC loss rate"  ETV
vector 134  VoIPMCoAMulti.MN[0].wlan[1].radio  "MAC loss rate"  ETV
vector 286  VoIPMCoAMulti.MN[0].networkLayer.xMobileIPv6  "BU to HA"  ETV
vector 199  VoIPMCoAMulti.AP_1.eth[0]  framesSent  ETV
vector 201  VoIPMCoAMulti.AP_1.eth[0]  bytesSent  ETV
vector 168  VoIPMCoAMulti.R1.eth[1].mac  framesReceivedOK  ETV
vector 170  VoIPMCoAMulti.R1.eth[1].mac  bytesReceivedOK  ETV
vector 174  VoIPMCoAMulti.R1.eth[1].mac  framesPassedToHL  ETV
vector 276  VoIPMCoAMulti.HA.networkLayer.xMobileIPv6  "BA to MN"  ETV
vector 290  VoIPMCoAMulti.MN[0].networkLayer.xMobileIPv6  "BA from HA"  ETV
vector 292  VoIPMCoAMulti.MN[0].networkLayer.xMobileIPv6  "HoTI to CN"  ETV
vector 293  VoIPMCoAMulti.MN[0].networkLayer.xMobileIPv6  "CoTI to CN"  ETV
vector 130  VoIPMCoAMulti.MN[0].wlan[1].mgmt  "queue length"  ETV
vector 281  VoIPMCoAMulti.HA.networkLayer.xMobileIPv6  "HoT to MN"  ETV
vector 282  VoIPMCoAMulti.HA.networkLayer.xMobileIPv6  "CoT to MN"  ETV
vector 296  VoIPMCoAMulti.MN[0].networkLayer.xMobileIPv6  "HoT from CN"  ETV
vector 297  VoIPMCoAMulti.MN[0].networkLayer.xMobileIPv6  "CoT from CN"  ETV
vector 287  VoIPMCoAMulti.MN[0].networkLayer.xMobileIPv6  "BU to CN"  ETV
vector 268  VoIPMCoAMulti.CN[0].networkLayer.xMobileIPv6  "HoT to MN"  ETV
vector 269  VoIPMCoAMulti.CN[0].networkLayer.xMobileIPv6  "CoT to MN"  ETV
vector 263  VoIPMCoAMulti.CN[0].networkLayer.xMobileIPv6  "BA to MN"  ETV
vector 291  VoIPMCoAMulti.MN[0].networkLayer.xMobileIPv6  "BA from CN"  ETV
vector 230  VoIPMCoAMulti.Rb.eth[0].queue  "queue length"  ETV
vector 15  VoIPMCoAMulti.Ra.eth[1].queue  "queue length"  ETV
vector 45  VoIPMCoAMulti.CN[0].pingApp  pingDrop  ETV
vector 198  VoIPMCoAMulti.AP_1.wlan.radio  "MAC loss rate"  ETV
vector 139  VoIPMCoAMulti.MN[0].wlan[2].radio  "MAC loss rate"  ETV
vector 217  VoIPMCoAMulti.AP_2.eth[0]  framesSent  ETV
vector 219  VoIPMCoAMulti.AP_2.eth[0]  bytesSent  ETV
vector 182  VoIPMCoAMulti.R1.eth[2].mac  framesReceivedOK  ETV
vector 184  VoIPMCoAMulti.R1.eth[2].mac  bytesReceivedOK  ETV
vector 188  VoIPMCoAMulti.R1.eth[2].mac  framesPassedToHL  ETV
vector 135  VoIPMCoAMulti.MN[0].wlan[2].mgmt  "queue length"  ETV
vector 216  VoIPMCoAMulti.AP_2.wlan.radio  "MAC loss rate"  ETV
vector 151  VoIPMCoAMulti.R1.eth[0].queue  "queue length"  ETV
vector 29  VoIPMCoAMulti.Ra.eth[2].queue  "queue length"  ETV
vector 244  VoIPMCoAMulti.Rb.eth[1].queue  "queue length"  ETV
0	11214 8 0 0 0 0 1 1 1 1 1
3	11222 1047 551 82784 1.0000672 43.72025413334 46 1 46 1081 33511
4	12269 854 813 82809 1.0100672 43.74032133334 33 1 33 561 12529
5	13123 1163 551 82784 1.0000672 43.72025413334 46 64 13392 374642 3870032780
6	14286 919 813 82809 1.0100672 43.74032133334 33 64 4104 70322 204462868
10	15205 887 813 82809 1.0100672 43.74032133334 33 1 33 561 12529
15	16092 3993 33176 383396 16.040904 193.04032 178 0 1 89 89
17	20085 12051 552 385431 1.0000672 194.0403792 486 1 486 118341 38381931
18	32136 3376 815 383441 1.0100672 193.0603872 137 1 137 9453 866525
19	35512 13305 552 385431 1.0000672 194.0403792 486 64 160156 42301380 4958088262936
20	48817 3708 815 383441 1.0100672 193.0603872 137 64 44320 3079242 100259524980
24	52525 3376 815 383441 1.0100672 193.0603872 137 1 137 9453 866525
29	55901 1064 161076 204510 80.0621344 101.0641344 46 0 2 25 27
31	56965 3574 553 361197 1.0000672 182.0402608 144 1 144 10440 1005720
32	60539 12440 1461 385417 1.0200672 194.0402528 506 1 506 128271 43312841
33	72979 3915 553 361197 1.0000672 182.0402608 144 64 45278 3204436 106108137752
34	76894 13770 1461 385417 1.0200672 194.0402528 506 64 170402 47240072 5866108019960
38	90664 12440 1461 385417 1.0200672 194.0402528 506 1 506 128271 43312841
43	103104 3351 2 201388 0 99.5 200 1 200 20100 2686700
44	106455 598 19511 56996 10.222402102222 29.123675162783 15 0.121979038162 0.222402102222 1.965738279046 0.26688008388346
45	107053 27 48253 48253 25.123595334101 25.123595334101 1 5 5 5 25
46	107080 3088 18792 385330 10 194 185 0 184 17020 2093460
47	110168 409 19511 56996 10.222402102222 29.123675162783 15 0 19 130 1740
48	110577 9 0 0 0 0 1 1 1 1 1
49	110586 8270 14917 371360 8 187.0000672 436 0 3 346 478
51	118856 12843 554 385339 1.0000672 194.0001264 523 1 523 137026 47822074
52	131699 3722 1463 381405 1.0200672 192.0401936 149 1 149 11175 1113775
53	135421 14219 554 385339 1.0000672 194.0001264 523 64 174272 49883962 6349389444116
54	149640 4070 1463 381405 1.0200672 192.0401936 149 64 45598 3324454 111526337852
58	153710 3722 1463 381405 1.0200672 192.0401936 149 1 149 11175 1113775
61	157432 254 14997 371412 8.0400768 187.0400768 11 1 11 66 506
70	157686 37 0 66599 0 35 3 1 2 4 6
73	157723 887 555 82795 1.0000672 43.73032133334 33 1 33 561 12529
74	158610 1094 811 82786 1.0100672 43.73025413334 46 1 46 1081 33511
75	159704 952 555 82795 1.0000672 43.73032133334 33 64 4104 70322 204462868
76	160656 1210 811 82786 1.0100672 43.73025413334 46 64 13392 374642 3870032780
80	161866 1094 811 82786 1.0100672 43.73025413334 46 1 46 1081 33511
85	162960 932 72 6923 0.115677423169 4.132924239142 42 0 19 365 4585
87	163892 120595 556 396648 1.0000672 199.955597615735 3926 1 3926 7708701 20178809651
88	284487 572 6900 59016 4.132146639142 30.073325531273 21 1 21 231 3311
89	285059 128004 556 396648 1.0000672 199.955597615735 3926 64 260760 528758190 92326567343708
90	413063 609 6900 59016 4.132146639142 30.073325531273 21 40 1944 18380 23601424
94	413672 572 6900 59016 4.132146639142 30.073325531273 21 1 21 231 3311
99	414244 224974 821 396678 1.0100672 199.965599615735 7894 0 466 262704 21224336
100	639218 898 874 6992 1.0102036 4.143388587376 38 0 16 289 3115
102	640116 2430264 0 396745 0 199.985113900997 83606 0 7 215416 814548
103	3070380 702772 0 396735 0 199.985023900997 24198 0 2 24064 47996
104	3773152 28 27833 27833 14.061026092708 14.061026092708 1 0 0 0 0
105	3773180 593 6859 58985 4.122146639142 30.063325531273 21 1 21 231 3311
106	3773773 124532 814 396676 1.0100672 199.965597615735 3926 1 3926 7708701 20178809651
107	3898305 630 6859 58985 4.122146639142 30.063325531273 21 40 1944 18380 23601424
108	3898935 131941 814 396676 1.0100672 199.965597615735 3926 64 260760 528758190 92326567343708
112	4030876 124532 814 396676 1.0100672 199.965597615735 3926 1 3926 7708701 20178809651
117	4155408 3751 6977 154235 4.143130285986 76.562150571214 127 7 154 10587 1134955
118	4159159 110 6977 84692 4.143130285986 45.06214996402 4 2 11 31 295
119	4159269 5514 6977 154235 4.143130285986 76.562150571214 127 0.062149822584999 1.143130285986 9.6625939009879 2.224942357117
124	4164783 10 0 0 0 0 1 1 1 1 1
127	4164793 435206 0 396752 0 199.985965822682 15154 0 7 26286 100326
128	4599999 181256 0 396747 0 199.985295822682 6400 0 2 4668 7608
129	4781255 470 8211 58114 4.735155690365 29.679225521506 17 0 0 0 0
130	4781725 112 30240 30300 15.040756004419 15.042860000505 4 0 2 4 6
132	4781837 844696 0 396705 0 199.968709512068 29034 0 7 12490 53230
133	5626533 525008 0 396704 0 199.968709512068 18028 0 2 9846 11514
134	6151541 2365 28670 394210 14.451230731512 198.6539717252 81 0 0 0 0
135	6153906 110 74902 74951 38.78173843452 38.783502460338 4 0 2 4 6
137	6154016 709842 0 396723 0 199.972693386674 24186 0 7 17696 72252
138	6863858 408984 0 396722 0 199.972693386674 13896 0 2 8060 10288
139	7272842 1716 73977 395716 38.435567668031 199.462655652485 58 0 0 0 0
144	7274558 10 0 0 0 0 1 1 1 1 1
147	7274568 1075566 0 396749 0 199.985296643096 37016 0 7 350 1390
148	8350134 711054 0 396748 0 199.985296643096 24456 0 2 12244 12280
149	9061188 3552 6353 396544 3.976739013338 199.885024332493 122 0 0 0 0
150	9064740 70 0 84426 0 45 5 1 2 7 11
151	9064810 4484 160977 250116 80.0515552 126.050696 186 0 8 561 2585
153	9069294 3513 557 383424 1.0000672 193.0503872 137 1 137 9453 866525
154	9072807 12537 812 385447 1.0100672 194.0503792 486 1 486 118341 38381931
155	9085344 3845 557 383424 1.0000672 193.0503872 137 64 44320 3079242 100259524980
156	9089189 13791 812 385447 1.0100672 194.0503792 486 64 160156 42301380 4958088262936
160	9102980 12537 812 385447 1.0100672 194.0503792 486 1 486 118341 38381931
165	9115517 1887 69 176869 0.09995410364 87.5512336 82 0 20 423 5365
167	9117404 124993 558 396760 1.0000672 199.995544291125 3961 1 3961 7846741 20723242981
168	9242397 281 29694 96121 14.928905325538 50.073146125068 10 1 10 55 385
169	9242678 132750 558 396760 1.0000672 199.995544291125 3961 64 305932 657156896 1.4104961758041e+14
170	9375428 300 29694 96121 14.928905325538 50.073146125068 10 108 756 4344 2398376
174	9375728 281 29694 96121 14.928905325538 50.073146125068 10 1 10 55 385
179	9376009 2820 75 373370 0.118605855963 188.050417482233 120 0 21 482 6224
181	9378829 127130 559 396664 1.0000672 199.962394996255 4032 1 4032 8130528 21857569440
182	9505959 312 74635 325822 38.71005253334 164.071368828974 11 1 11 66 506
183	9506271 134896 559 396664 1.0000672 199.962394996255 4032 64 292338 611514944 1.2239966947264e+14
184	9641167 332 74635 325822 38.71005253334 164.071368828974 11 130 862 5400 3336960
188	9641499 312 74635 325822 38.71005253334 164.071368828974 11 1 11 66 506
193	9641811 233079 823 396696 1.0100672 199.968413433888 7940 0 506 306624 43515736
194	9874890 1169 875 176978 1.0102036 87.578280327267 48 0 16 300 3060
196	9876059 2479290 0 396710 0 199.968759252069 85914 0 7 223722 843798
197	12355349 733362 0 396703 0 199.968709252069 25410 0 2 25034 49694
198	13088711 87 54675 233390 28.063101346546 117.242932595511 3 0 0 0 0
199	13088798 281 29669 96052 14.918905325538 50.063146125068 10 1 10 55 385
200	13089079 124972 816 396694 1.0100672 199.968411433888 3960 1 3960 7842780 20707553460
201	13214051 300 29669 96052 14.918905325538 50.063146125068 10 108 756 4344 2398376
202	13214351 132727 816 396694 1.0100672 199.968411433888 3960 64 305868 656850964 1.4095602319178e+14
206	13347078 124972 816 396694 1.0100672 199.968411433888 3960 1 3960 7842780 20707553460
211	13472050 237141 824 396714 1.0100672 199.972396996255 8086 0 466 293200 32221888
212	13709191 2201 876 254372 1.0102036 128.08183360003 84 0 18 384 4306
214	13711392 2560058 0 396728 0 199.972862814436 88138 0 7 231562 872262
215	16271450 761194 0 396721 0 199.972692814436 26238 0 2 25934 51566
216	17032644 89 100610 383473 52.063471459046 193.061187484606 3 0 0 0 0
217	17032733 312 74591 325762 38.70005253334 164.061368828974 11 1 11 66 506
218	17033045 127142 817 396712 1.0100672 199.972394996255 4032 1 4032 8130528 21857569440
219	17160187 332 74591 325762 38.70005253334 164.061368828974 11 130 862 5400 3336960
220	17160519 134908 817 396712 1.0100672 199.972394996255 4032 64 292338 611514944 1.2239966947264e+14
224	17295427 127142 817 396712 1.0100672 199.972394996255 4032 1 4032 8130528 21857569440
229	17422569 10 0 0 0 0 1 1 1 1 1
230	17422579 4095 33114 361145 16.0205152 182.0201936 176 0 1 88 88
232	17426674 12945 560 385374 1.0000672 194.0202528 506 1 506 128271 43312841
233	17439619 3719 1460 361235 1.0200672 182.0602608 144 1 144 10440 1005720
234	17443338 14275 560 385374 1.0000672 194.0202528 506 64 170402 47240072 5866108019960
235	17457613 4060 1460 361235 1.0200672 182.0602608 144 64 45278 3204436 106108137752
239	17461673 3719 1460 361235 1.0200672 182.0602608 144 1 144 10440 1005720
244	17465392 1111 161207 204614 80.0825552 101.0845552 46 0 2 25 27
246	17466503 3870 561 381350 1.0000672 192.0201936 149 1 149 11175 1113775
247	17470373 13086 1462 385367 1.0200672 194.0201264 512 1 512 131328 44870400
248	17483459 4218 561 381350 1.0000672 192.0201936 149 64 45598 3324454 111526337852
249	17487677 14428 1462 385367 1.0200672 194.0201264 512 64 170786 47740652 5950261862232
253	17502105 13086 1462 385367 1.0200672 194.0201264 512 1 512 131328 44870400
256	17515191 265 14980 371395 8.0200768 187.0200768 11 1 11 66 506
257	17515456 253 14981 371396 8.02008 187.02008 11 1 11 66 506
258	17515709 75 133 133 0.233447027066 0.233447027066 3 1 1 3 3
259	17515784 50 88 3665 0.156140310969 2.528305054092 2 1 1 2 2
263	17515834 55 31442 75990 15.246114194282 38.98662308266 2 2 2 4 8
268	17515889 56 30824 75344 15.104003026799 38.844225494065 2 1 1 2 2
269	17515945 56 30852 75364 15.105204752114 38.844848506974 2 1 1 2 2
272	17516001 50 199 199 0.293585502868 0.293585502868 2 1 1 2 2
276	17516051 111 29823 75536 14.969273325538 38.875341384974 4 1 1 4 4
281	17516162 56 30535 75120 15.071784230713 38.812606668247 2 1 1 2 2
282	17516218 56 30574 75133 15.072867228756 38.813509681156 2 1 1 2 2
285	17516274 156 192 70984 0.289443216007 37.09423066673 6 1 1 6 6
286	17516430 56 29650 74572 14.918454877965 38.699568478363 2 1 1 2 2
287	17516486 633 30805 392665 15.103428070137 197.844070533065 22 1 1 22 22
290	17517119 55 30229 74891 15.040756004419 38.78173843452 2 1 1 2 2
291	17517174 56 31597 76252 15.306850884023 39.047446182985 2 1 1 2 2
292	17517230 110 30230 74894 15.040756004419 38.78173843452 4 1 1 4 4
293	17517340 110 30231 74895 15.040756004419 38.78173843452 4 1 1 4 4
296	17517450 112 30781 75768 15.102538963003 38.925277833817 4 1 1 4 4
297	17517562 112 30804 75656 15.103428070137 38.905490955817 4 1 1 4 4
298	17517674 51 255 4008 0.419663425534 2.746018912556 2 1 1 2 2
311	17517725 75 146 146 0.234158752695 0.234158752695 3 1 1 3 3
312	17517800 50 121 121 0.216189795476 0.216189795476 2 1 1 2 2
