file 17153676 1426234191                                        
version 2
run MCoA_ALL-0-20150313-09:09:42-2908
attr configname MCoA_ALL
attr datetime 20150313-09:09:42
attr experiment MCoA_ALL
attr inifile VoIPMCoACN.ini
attr iterationvars ""
attr iterationvars2 $repetition=0
attr measurement ""
attr network VoIPMCoAMulti
attr processid 2908
attr repetition 0
attr replication #0
attr resultdir results
attr runnumber 0
attr seedset 0

vector 0  VoIPMCoAMulti.Ra.networkLayer.ipv6  IPv6Active_Event  ETV
vector 48  VoIPMCoAMulti.CN[0].networkLayer.ipv6  IPv6Active_Event  ETV
vector 70  VoIPMCoAMulti.HA.networkLayer.ipv6  IPv6Active_Event  ETV
vector 124  VoIPMCoAMulti.MN[0].networkLayer.ipv6  IPv6Active_Event  ETV
vector 144  VoIPMCoAMulti.MN[1].networkLayer.ipv6  IPv6Active_Event  ETV
vector 150  VoIPMCoAMulti.R1.networkLayer.ipv6  IPv6Active_Event  ETV
vector 229  VoIPMCoAMulti.Rb.networkLayer.ipv6  IPv6Active_Event  ETV
vector 103  VoIPMCoAMulti.AP_HA.wlan.mac  RadioState  ETV
attr enum  "IDLE=0, RECV=1, SLEEP=3, TRANSMIT=2"
attr enumname  RadioState
vector 102  VoIPMCoAMulti.AP_HA.wlan.mac  State  ETV
attr enum  "BACKOFF=3, DEFER=1, IDLE=0, RECEIVE=8, WAITACK=4, WAITBROADCAST=5, WAITCTS=6, WAITDIFS=2, WAITSIFS=7"
attr enumname  Ieee80211Mac
vector 128  VoIPMCoAMulti.MN[0].wlan[0].mac  RadioState  ETV
attr enum  "IDLE=0, RECV=1, SLEEP=3, TRANSMIT=2"
attr enumname  RadioState
vector 127  VoIPMCoAMulti.MN[0].wlan[0].mac  State  ETV
attr enum  "BACKOFF=3, DEFER=1, IDLE=0, RECEIVE=8, WAITACK=4, WAITBROADCAST=5, WAITCTS=6, WAITDIFS=2, WAITSIFS=7"
attr enumname  Ieee80211Mac
vector 133  VoIPMCoAMulti.MN[0].wlan[1].mac  RadioState  ETV
attr enum  "IDLE=0, RECV=1, SLEEP=3, TRANSMIT=2"
attr enumname  RadioState
vector 132  VoIPMCoAMulti.MN[0].wlan[1].mac  State  ETV
attr enum  "BACKOFF=3, DEFER=1, IDLE=0, RECEIVE=8, WAITACK=4, WAITBROADCAST=5, WAITCTS=6, WAITDIFS=2, WAITSIFS=7"
attr enumname  Ieee80211Mac
vector 138  VoIPMCoAMulti.MN[0].wlan[2].mac  RadioState  ETV
attr enum  "IDLE=0, RECV=1, SLEEP=3, TRANSMIT=2"
attr enumname  RadioState
vector 137  VoIPMCoAMulti.MN[0].wlan[2].mac  State  ETV
attr enum  "BACKOFF=3, DEFER=1, IDLE=0, RECEIVE=8, WAITACK=4, WAITBROADCAST=5, WAITCTS=6, WAITDIFS=2, WAITSIFS=7"
attr enumname  Ieee80211Mac
vector 148  VoIPMCoAMulti.MN[1].wlan[0].mac  RadioState  ETV
attr enum  "IDLE=0, RECV=1, SLEEP=3, TRANSMIT=2"
attr enumname  RadioState
vector 147  VoIPMCoAMulti.MN[1].wlan[0].mac  State  ETV
attr enum  "BACKOFF=3, DEFER=1, IDLE=0, RECEIVE=8, WAITACK=4, WAITBROADCAST=5, WAITCTS=6, WAITDIFS=2, WAITSIFS=7"
attr enumname  Ieee80211Mac
vector 197  VoIPMCoAMulti.AP_1.wlan.mac  RadioState  ETV
attr enum  "IDLE=0, RECV=1, SLEEP=3, TRANSMIT=2"
attr enumname  RadioState
vector 196  VoIPMCoAMulti.AP_1.wlan.mac  State  ETV
attr enum  "BACKOFF=3, DEFER=1, IDLE=0, RECEIVE=8, WAITACK=4, WAITBROADCAST=5, WAITCTS=6, WAITDIFS=2, WAITSIFS=7"
attr enumname  Ieee80211Mac
vector 215  VoIPMCoAMulti.AP_2.wlan.mac  RadioState  ETV
attr enum  "IDLE=0, RECV=1, SLEEP=3, TRANSMIT=2"
attr enumname  RadioState
vector 214  VoIPMCoAMulti.AP_2.wlan.mac  State  ETV
attr enum  "BACKOFF=3, DEFER=1, IDLE=0, RECEIVE=8, WAITACK=4, WAITBROADCAST=5, WAITCTS=6, WAITDIFS=2, WAITSIFS=7"
attr enumname  Ieee80211Mac
vector 43  VoIPMCoAMulti.CN[0].udpApp[0]  "MCOA VIDEO Packet Sent"  ETV
vector 165  VoIPMCoAMulti.R1.eth[1].queue  "queue length"  ETV
vector 85  VoIPMCoAMulti.HA.eth[1].queue  "queue length"  ETV
vector 179  VoIPMCoAMulti.R1.eth[2].queue  "queue length"  ETV
vector 259  VoIPMCoAMulti.CN[0].networkLayer.neighbourDiscovery  "Starting DAD"  ETV
vector 312  VoIPMCoAMulti.Rb.networkLayer.neighbourDiscovery  "Starting DAD"  ETV
vector 258  VoIPMCoAMulti.Ra.networkLayer.neighbourDiscovery  "Starting DAD"  ETV
vector 311  VoIPMCoAMulti.R1.networkLayer.neighbourDiscovery  "Starting DAD"  ETV
vector 285  VoIPMCoAMulti.MN[0].networkLayer.neighbourDiscovery  "Starting DAD"  ETV
vector 272  VoIPMCoAMulti.HA.networkLayer.neighbourDiscovery  "Starting DAD"  ETV
vector 298  VoIPMCoAMulti.MN[1].networkLayer.neighbourDiscovery  "Starting DAD"  ETV
vector 3  VoIPMCoAMulti.Ra.eth[0].mac  framesSent  ETV
vector 5  VoIPMCoAMulti.Ra.eth[0].mac  bytesSent  ETV
vector 17  VoIPMCoAMulti.Ra.eth[1].mac  framesSent  ETV
vector 19  VoIPMCoAMulti.Ra.eth[1].mac  bytesSent  ETV
vector 31  VoIPMCoAMulti.Ra.eth[2].mac  framesSent  ETV
vector 33  VoIPMCoAMulti.Ra.eth[2].mac  bytesSent  ETV
vector 51  VoIPMCoAMulti.CN[0].eth[0].mac  framesSent  ETV
vector 53  VoIPMCoAMulti.CN[0].eth[0].mac  bytesSent  ETV
vector 73  VoIPMCoAMulti.HA.eth[0].mac  framesSent  ETV
vector 75  VoIPMCoAMulti.HA.eth[0].mac  bytesSent  ETV
vector 87  VoIPMCoAMulti.HA.eth[1].mac  framesSent  ETV
vector 89  VoIPMCoAMulti.HA.eth[1].mac  bytesSent  ETV
vector 153  VoIPMCoAMulti.R1.eth[0].mac  framesSent  ETV
vector 155  VoIPMCoAMulti.R1.eth[0].mac  bytesSent  ETV
vector 167  VoIPMCoAMulti.R1.eth[1].mac  framesSent  ETV
vector 169  VoIPMCoAMulti.R1.eth[1].mac  bytesSent  ETV
vector 181  VoIPMCoAMulti.R1.eth[2].mac  framesSent  ETV
vector 183  VoIPMCoAMulti.R1.eth[2].mac  bytesSent  ETV
vector 232  VoIPMCoAMulti.Rb.eth[0].mac  framesSent  ETV
vector 234  VoIPMCoAMulti.Rb.eth[0].mac  bytesSent  ETV
vector 246  VoIPMCoAMulti.Rb.eth[1].mac  framesSent  ETV
vector 248  VoIPMCoAMulti.Rb.eth[1].mac  bytesSent  ETV
vector 74  VoIPMCoAMulti.HA.eth[0].mac  framesReceivedOK  ETV
vector 76  VoIPMCoAMulti.HA.eth[0].mac  bytesReceivedOK  ETV
vector 80  VoIPMCoAMulti.HA.eth[0].mac  framesPassedToHL  ETV
vector 154  VoIPMCoAMulti.R1.eth[0].mac  framesReceivedOK  ETV
vector 156  VoIPMCoAMulti.R1.eth[0].mac  bytesReceivedOK  ETV
vector 160  VoIPMCoAMulti.R1.eth[0].mac  framesPassedToHL  ETV
vector 4  VoIPMCoAMulti.Ra.eth[0].mac  framesReceivedOK  ETV
vector 6  VoIPMCoAMulti.Ra.eth[0].mac  bytesReceivedOK  ETV
vector 10  VoIPMCoAMulti.Ra.eth[0].mac  framesPassedToHL  ETV
vector 106  VoIPMCoAMulti.AP_HA.eth[0]  framesReceivedOK  ETV
vector 108  VoIPMCoAMulti.AP_HA.eth[0]  bytesReceivedOK  ETV
vector 112  VoIPMCoAMulti.AP_HA.eth[0]  framesPassedToHL  ETV
vector 18  VoIPMCoAMulti.Ra.eth[1].mac  framesReceivedOK  ETV
vector 20  VoIPMCoAMulti.Ra.eth[1].mac  bytesReceivedOK  ETV
vector 24  VoIPMCoAMulti.Ra.eth[1].mac  framesPassedToHL  ETV
vector 200  VoIPMCoAMulti.AP_1.eth[0]  framesReceivedOK  ETV
vector 202  VoIPMCoAMulti.AP_1.eth[0]  bytesReceivedOK  ETV
vector 206  VoIPMCoAMulti.AP_1.eth[0]  framesPassedToHL  ETV
vector 218  VoIPMCoAMulti.AP_2.eth[0]  framesReceivedOK  ETV
vector 220  VoIPMCoAMulti.AP_2.eth[0]  bytesReceivedOK  ETV
vector 224  VoIPMCoAMulti.AP_2.eth[0]  framesPassedToHL  ETV
vector 99  VoIPMCoAMulti.AP_HA.relayUnit  "buffer level"  ETV
vector 193  VoIPMCoAMulti.AP_1.relayUnit  "buffer level"  ETV
vector 211  VoIPMCoAMulti.AP_2.relayUnit  "buffer level"  ETV
vector 100  VoIPMCoAMulti.AP_HA.wlan.mgmt  "queue length"  ETV
vector 194  VoIPMCoAMulti.AP_1.wlan.mgmt  "queue length"  ETV
vector 212  VoIPMCoAMulti.AP_2.wlan.mgmt  "queue length"  ETV
vector 233  VoIPMCoAMulti.Rb.eth[0].mac  framesReceivedOK  ETV
vector 235  VoIPMCoAMulti.Rb.eth[0].mac  bytesReceivedOK  ETV
vector 239  VoIPMCoAMulti.Rb.eth[0].mac  framesPassedToHL  ETV
vector 32  VoIPMCoAMulti.Ra.eth[2].mac  framesReceivedOK  ETV
vector 34  VoIPMCoAMulti.Ra.eth[2].mac  bytesReceivedOK  ETV
vector 38  VoIPMCoAMulti.Ra.eth[2].mac  framesPassedToHL  ETV
vector 247  VoIPMCoAMulti.Rb.eth[1].mac  framesReceivedOK  ETV
vector 249  VoIPMCoAMulti.Rb.eth[1].mac  bytesReceivedOK  ETV
vector 253  VoIPMCoAMulti.Rb.eth[1].mac  framesPassedToHL  ETV
vector 52  VoIPMCoAMulti.CN[0].eth[0].mac  framesReceivedOK  ETV
vector 54  VoIPMCoAMulti.CN[0].eth[0].mac  bytesReceivedOK  ETV
vector 58  VoIPMCoAMulti.CN[0].eth[0].mac  framesPassedToHL  ETV
vector 149  VoIPMCoAMulti.MN[1].wlan[0].radio  "MAC loss rate"  ETV
vector 105  VoIPMCoAMulti.AP_HA.eth[0]  framesSent  ETV
vector 107  VoIPMCoAMulti.AP_HA.eth[0]  bytesSent  ETV
vector 88  VoIPMCoAMulti.HA.eth[1].mac  framesReceivedOK  ETV
vector 90  VoIPMCoAMulti.HA.eth[1].mac  bytesReceivedOK  ETV
vector 94  VoIPMCoAMulti.HA.eth[1].mac  framesPassedToHL  ETV
vector 129  VoIPMCoAMulti.MN[0].wlan[0].radio  "MAC loss rate"  ETV
vector 49  VoIPMCoAMulti.CN[0].eth[0].queue  "queue length"  ETV
vector 256  VoIPMCoAMulti.Rb.eth[1].mac  collisions  ETV
vector 257  VoIPMCoAMulti.Rb.eth[1].mac  backoffs  ETV
vector 61  VoIPMCoAMulti.CN[0].eth[0].mac  collisions  ETV
vector 46  VoIPMCoAMulti.CN[0].pingApp  "PING: Ping Request"  ETV
vector 230  VoIPMCoAMulti.Rb.eth[0].queue  "queue length"  ETV
vector 1  VoIPMCoAMulti.Ra.eth[0].queue  "queue length"  ETV
vector 47  VoIPMCoAMulti.CN[0].pingApp  "PING: Ping Reply"  ETV
vector 44  VoIPMCoAMulti.CN[0].pingApp  pingRTT  ETV
vector 104  VoIPMCoAMulti.AP_HA.wlan.radio  "MAC loss rate"  ETV
vector 286  VoIPMCoAMulti.MN[0].networkLayer.xMobileIPv6  "BU to HA"  ETV
vector 199  VoIPMCoAMulti.AP_1.eth[0]  framesSent  ETV
vector 201  VoIPMCoAMulti.AP_1.eth[0]  bytesSent  ETV
vector 134  VoIPMCoAMulti.MN[0].wlan[1].radio  "MAC loss rate"  ETV
vector 168  VoIPMCoAMulti.R1.eth[1].mac  framesReceivedOK  ETV
vector 170  VoIPMCoAMulti.R1.eth[1].mac  bytesReceivedOK  ETV
vector 174  VoIPMCoAMulti.R1.eth[1].mac  framesPassedToHL  ETV
vector 276  VoIPMCoAMulti.HA.networkLayer.xMobileIPv6  "BA to MN"  ETV
vector 290  VoIPMCoAMulti.MN[0].networkLayer.xMobileIPv6  "BA from HA"  ETV
vector 292  VoIPMCoAMulti.MN[0].networkLayer.xMobileIPv6  "HoTI to CN"  ETV
vector 293  VoIPMCoAMulti.MN[0].networkLayer.xMobileIPv6  "CoTI to CN"  ETV
vector 130  VoIPMCoAMulti.MN[0].wlan[1].mgmt  "queue length"  ETV
vector 71  VoIPMCoAMulti.HA.eth[0].queue  "queue length"  ETV
vector 281  VoIPMCoAMulti.HA.networkLayer.xMobileIPv6  "HoT to MN"  ETV
vector 282  VoIPMCoAMulti.HA.networkLayer.xMobileIPv6  "CoT to MN"  ETV
vector 296  VoIPMCoAMulti.MN[0].networkLayer.xMobileIPv6  "HoT from CN"  ETV
vector 297  VoIPMCoAMulti.MN[0].networkLayer.xMobileIPv6  "CoT from CN"  ETV
vector 287  VoIPMCoAMulti.MN[0].networkLayer.xMobileIPv6  "BU to CN"  ETV
vector 268  VoIPMCoAMulti.CN[0].networkLayer.xMobileIPv6  "HoT to MN"  ETV
vector 269  VoIPMCoAMulti.CN[0].networkLayer.xMobileIPv6  "CoT to MN"  ETV
vector 263  VoIPMCoAMulti.CN[0].networkLayer.xMobileIPv6  "BA to MN"  ETV
vector 15  VoIPMCoAMulti.Ra.eth[1].queue  "queue length"  ETV
vector 291  VoIPMCoAMulti.MN[0].networkLayer.xMobileIPv6  "BA from CN"  ETV
vector 198  VoIPMCoAMulti.AP_1.wlan.radio  "MAC loss rate"  ETV
vector 45  VoIPMCoAMulti.CN[0].pingApp  pingDrop  ETV
vector 217  VoIPMCoAMulti.AP_2.eth[0]  framesSent  ETV
vector 219  VoIPMCoAMulti.AP_2.eth[0]  bytesSent  ETV
vector 182  VoIPMCoAMulti.R1.eth[2].mac  framesReceivedOK  ETV
vector 184  VoIPMCoAMulti.R1.eth[2].mac  bytesReceivedOK  ETV
vector 188  VoIPMCoAMulti.R1.eth[2].mac  framesPassedToHL  ETV
vector 139  VoIPMCoAMulti.MN[0].wlan[2].radio  "MAC loss rate"  ETV
vector 135  VoIPMCoAMulti.MN[0].wlan[2].mgmt  "queue length"  ETV
vector 216  VoIPMCoAMulti.AP_2.wlan.radio  "MAC loss rate"  ETV
vector 151  VoIPMCoAMulti.R1.eth[0].queue  "queue length"  ETV
0	10998 8 0 0 0 0 1 1 1 1 1
1	11006 210 18978 28698 10.0409536 14.0403216 10 0 1 5 5
3	11216 1439 551 90096 1.0000672 43.243628230065 64 1 64 2080 89440
4	12655 877 813 90121 1.0100672 43.263695430065 34 1 34 595 13685
5	13532 1608 551 90096 1.0000672 43.243628230065 64 64 18132 680564 9159863808
6	15140 943 813 90121 1.0100672 43.263695430065 34 64 4582 82592 273601808
10	16083 911 813 90121 1.0100672 43.263695430065 34 1 34 595 13685
15	16994 2170 31595 382044 14.785812247733 193.04032 98 0 1 49 49
17	19164 13383 552 383869 1.0000672 194.0605136 548 1 548 150426 55005774
18	32547 3510 815 385649 1.0100672 195.0608544 140 1 140 9870 924490
19	36057 14751 552 383869 1.0000672 194.0605136 548 64 139980 42684158 4375400335764
20	50808 3821 815 385649 1.0100672 195.0608544 140 64 22650 1522308 23084719768
24	54629 3510 815 385649 1.0100672 195.0608544 140 1 140 9870 924490
31	58139 3707 553 385657 1.0000672 195.0610128 147 1 147 10878 1069670
32	61846 14231 1461 383997 1.0200672 194.100672 585 1 585 171405 66905085
33	76077 4031 553 385657 1.0000672 195.0610128 147 64 23628 1655496 26070154128
34	80108 15734 1461 383997 1.0200672 194.100672 585 64 154508 50720880 5715688597624
38	95842 14231 1461 383997 1.0200672 194.100672 585 1 585 171405 66905085
43	110073 3300 2 119879 0 55 201 1 201 20301 2727101
44	113373 600 19662 61337 10.225299615758 29.124735263617 15 0.122439339903 0.225299615758 1.967824255984 0.26764963609132
45	113973 27 51572 51572 25.124635630883 25.124635630883 1 5 5 5 25
46	114000 3092 18793 383738 10 194 185 0 184 17020 2093460
47	117092 410 19662 61337 10.225299615758 29.124735263617 15 0 19 130 1740
48	117502 9 0 0 0 0 1 1 1 1 1
49	117511 12456 14917 371060 8 187.0000672 666 0 6 1379 4477
51	129967 14500 554 383747 1.0000672 194.0001264 594 1 594 176715 70038045
52	144467 3835 1463 385794 1.0200672 195.1011712 150 1 150 11325 1136275
53	148302 16026 554 383747 1.0000672 194.0001264 594 64 155782 51804808 5889415861304
54	164328 4162 1463 385794 1.0200672 195.1011712 150 64 23820 1685690 26743151756
58	168490 3835 1463 385794 1.0200672 195.1011712 150 1 150 11325 1136275
61	172325 116 14997 371148 8.0400768 187.0400768 5 1 5 15 55
70	172441 37 0 72136 0 35 3 1 2 4 6
71	172478 42 30414 30415 14.551624 14.551656 2 0 1 1 1
73	172520 911 555 90107 1.0000672 43.253695430065 34 1 34 595 13685
74	173431 1504 811 90098 1.0100672 43.253628230065 64 1 64 2080 89440
75	174935 977 555 90107 1.0000672 43.253695430065 34 64 4582 82592 273601808
76	175912 1673 811 90098 1.0100672 43.253628230065 64 64 18132 680564 9159863808
80	177585 1504 811 90098 1.0100672 43.253628230065 64 1 64 2080 89440
85	179089 1151 72 28778 0.115677423169 14.0504288 52 0 19 370 4590
87	180240 121697 556 393988 1.0000672 199.983546118115 3962 1 3962 7850703 20738940425
88	301937 573 6900 63536 4.132146639142 30.074305590319 21 1 21 231 3311
89	302510 129229 556 393988 1.0000672 199.983546118115 3962 64 266298 550098226 98294056710220
90	431739 610 6900 63536 4.132146639142 30.074305590319 21 40 1964 18600 24205984
94	432349 573 6900 63536 4.132146639142 30.074305590319 21 1 21 231 3311
99	432922 227014 821 394023 1.0100672 199.993548118115 7966 0 466 268262 23082852
100	659936 948 874 19126 1.0102036 10.062477156768 40 0 16 290 3116
102	660884 2450352 0 394037 0 199.993973936296 84238 0 7 217330 821918
103	3111236 711984 0 394030 0 199.993843936296 24502 0 2 24310 48430
104	3823220 28 23878 23878 12.061026014982 12.061026014982 1 0 0 0 0
105	3823248 594 6859 63508 4.122146639142 30.064305590319 21 1 21 231 3311
106	3823842 125670 814 394021 1.0100672 199.993546118115 3962 1 3962 7850703 20738940425
107	3949512 631 6859 63508 4.122146639142 30.064305590319 21 40 1964 18600 24205984
108	3950143 133202 814 394021 1.0100672 199.993546118115 3962 64 266298 550098226 98294056710220
112	4083345 125670 814 394021 1.0100672 199.993546118115 3962 1 3962 7850703 20738940425
124	4209015 10 0 0 0 0 1 1 1 1 1
127	4209025 592766 0 393912 0 199.935825825115 20520 0 7 21330 82118
128	4801791 310768 0 393910 0 199.935295825115 10808 0 2 6604 9008
129	5112559 1202 8211 250356 4.735155690365 122.025145848251 42 0 0 0 0
130	5113761 112 30229 30306 14.539399078191 14.541663136297 4 0 2 4 6
132	5113873 764056 0 393928 0 199.943326130509 26488 0 7 16638 72406
133	5877929 455100 0 393926 0 199.942936130509 15788 0 2 9060 11396
134	6333029 1937 29735 312606 14.417702743156 154.401283393798 67 0 0 0 0
135	6334966 111 80206 80274 38.305112577328 38.30745666459 4 0 2 4 6
137	6335077 467620 0 393818 0 199.863137021388 16116 0 7 25744 101808
138	6802697 208714 0 393814 0 199.862927021388 7232 0 2 5158 8246
139	7011411 572 80191 149024 38.305112577328 69.515449716683 20 0 0 0 0
144	7011983 10 0 0 0 0 1 1 1 1 1
147	7011993 1093950 0 394032 0 199.993844367792 37620 0 7 350 1390
148	8105943 721152 0 394031 0 199.993844367792 24784 0 2 12408 12444
149	8827095 3593 6353 391988 3.976739013338 198.774803847825 123 0 0.02 0.06 0.0012
150	8830688 70 0 92644 0 45 5 1 2 7 11
151	8830758 3738 169232 385625 80.0503792 195.050696 152 0 3 150 228
153	8834496 3650 557 385629 1.0000672 195.0508544 140 1 140 9870 924490
154	8838146 13931 812 383908 1.0100672 194.0705136 548 1 548 150426 55005774
155	8852077 3961 557 385629 1.0000672 195.0508544 140 64 22650 1522308 23084719768
156	8856038 15299 812 383908 1.0100672 194.0705136 548 64 139980 42684158 4375400335764
160	8871337 13931 812 383908 1.0100672 194.0705136 548 1 548 150426 55005774
165	8885268 1842 69 79459 0.09995410364 38.0520128 80 0 20 420 5360
167	8887110 126928 558 393981 1.0000672 199.980395939729 4028 1 4028 8114406 21792589714
168	9014038 280 29751 105532 14.427548352795 49.571195870816 10 1 10 55 385
169	9014318 134983 558 393981 1.0000672 199.980395939729 4028 64 308806 688949692 1.4875160411558e+14
170	9149301 299 29751 105532 14.427548352795 49.571195870816 10 108 756 4344 2398376
174	9149600 280 29751 105532 14.427548352795 49.571195870816 10 1 10 55 385
179	9149880 1631 75 161736 0.118605855963 76.0504464 70 0 21 455 6195
181	9151511 127004 559 394007 1.0000672 199.990213410794 4026 1 4026 8106351 21760148201
182	9278515 252 79903 82201 38.233426630065 38.808564240152 9 1 9 45 285
183	9278767 134738 559 394007 1.0000672 199.990213410794 4026 64 278202 583638210 1.1072127779689e+14
184	9413505 270 79903 82201 38.233426630065 38.808564240152 9 130 782 3896 2145752
188	9413775 252 79903 82201 38.233426630065 38.808564240152 9 1 9 45 285
193	9414027 236668 823 394011 1.0100672 199.990397939729 8076 0 506 309562 43000012
194	9650695 2072 875 105482 1.0102036 49.563871139722 84 0 16 318 3078
196	9652767 2458130 0 394019 0 199.99088375791 85126 0 7 221368 835656
197	12110897 727862 0 394017 0 199.99069375791 25218 0 2 24728 48968
198	12838759 112 39753 105516 18.060838190059 49.56482231963 4 0 0 0 0
199	12838871 280 29733 105371 14.417548352795 49.561195870816 10 1 10 55 385
200	12839151 126939 816 394009 1.0100672 199.990395939729 4028 1 4028 8114406 21792589714
201	12966090 299 29733 105371 14.417548352795 49.561195870816 10 108 756 4344 2398376
202	12966389 134994 816 394009 1.0100672 199.990395939729 4028 64 308806 688949692 1.4875160411558e+14
206	13101383 126939 816 394009 1.0100672 199.990395939729 4028 1 4028 8114406 21792589714
211	13228322 236655 824 393889 1.0100672 199.93266022833 8068 0 466 278920 26507680
212	13464977 2945 876 161897 1.0102036 76.085725127267 116 0 18 394 4310
214	13467922 2471890 0 393974 0 199.962705096911 85056 0 7 220688 833468
215	15939812 722008 0 393972 0 199.962655096911 24874 0 2 24632 49024
216	16661820 57 98635 118946 47.065378713056 54.560906427607 2 0 0 0 0
217	16661877 252 79871 82183 38.223426630065 38.798564240152 9 1 9 45 285
218	16662129 126985 817 393887 1.0100672 199.93265822833 4025 1 4025 8102325 21743939525
219	16789114 270 79871 82183 38.223426630065 38.798564240152 9 130 782 3896 2145752
220	16789384 134717 817 393887 1.0100672 199.93265822833 4025 64 278138 583360008 1.1064388144409e+14
224	16924101 126985 817 393887 1.0100672 199.93265822833 4025 1 4025 8102325 21743939525
229	17051086 10 0 0 0 0 1 1 1 1 1
230	17051096 2491 18942 362130 10.0205648 182.0201936 106 0 1 53 53
232	17053587 14815 560 383940 1.0000672 194.080672 585 1 585 171405 66905085
233	17068402 3855 1460 385735 1.0200672 195.0810128 147 1 147 10878 1069670
234	17072257 16318 560 383940 1.0000672 194.080672 585 64 154508 50720880 5715688597624
235	17088575 4179 1460 385735 1.0200672 195.0810128 147 64 23628 1655496 26070154128
239	17092754 3855 1460 385735 1.0200672 195.0810128 147 1 147 10878 1069670
246	17096609 3984 561 385751 1.0000672 195.0811712 150 1 150 11325 1136275
247	17100593 14965 1462 383762 1.0200672 194.0201264 589 1 589 173755 68285715
248	17115558 4311 561 385751 1.0000672 195.0811712 150 64 23820 1685690 26743151756
249	17119869 16475 1462 383762 1.0200672 194.0201264 589 64 154764 50908394 5744677679028
253	17136344 14965 1462 383762 1.0200672 194.0201264 589 1 589 173755 68285715
256	17151309 121 14980 371134 8.0200768 187.0200768 5 1 5 15 55
257	17151430 111 14981 371135 8.02008 187.02008 5 1 5 15 55
258	17151541 75 133 133 0.233447027066 0.233447027066 3 1 1 3 3
259	17151616 50 88 3665 0.156140310969 2.528305054092 2 1 1 2 2
263	17151666 56 31454 81253 14.745541847733 38.510797326825 2 2 2 4 8
268	17151722 56 30854 80625 14.602466178096 38.368359713678 2 1 1 2 2
269	17151778 56 30891 80652 14.603828036003 38.369482757309 2 1 1 2 2
272	17151834 50 199 199 0.293585502868 0.293585502868 2 1 1 2 2
276	17151884 112 29892 80780 14.467916352795 38.399655598433 4 1 1 4 4
281	17151996 55 30547 80424 14.57060731999 38.336360826416 2 1 1 2 2
282	17152051 56 30561 80437 14.571670349043 38.337463870047 2 1 1 2 2
285	17152107 156 192 77002 0.289443216007 37.056713692116 6 1 1 6 6
286	17152263 56 29713 79851 14.417097889707 38.222942559717 2 1 1 2 2
287	17152319 623 30842 389646 14.602231205919 197.36802473424 22 1 1 22 22
290	17152942 56 30218 80195 14.539399078191 38.305112577328 2 1 1 2 2
291	17152998 55 31651 81678 14.80627855295 38.571620439417 2 1 1 2 2
292	17153053 112 30219 80198 14.539399078191 38.305112577328 4 1 1 4 4
293	17153165 112 30220 80199 14.539399078191 38.305112577328 4 1 1 4 4
296	17153277 112 30818 81014 14.601362067775 38.449412065706 4 1 1 4 4
297	17153389 111 30841 80927 14.602231205919 38.430125221502 4 1 1 4 4
298	17153500 51 255 4008 0.419663425534 2.746018912556 2 1 1 2 2
311	17153551 75 146 146 0.234158752695 0.234158752695 3 1 1 3 3
312	17153626 50 121 121 0.216189795476 0.216189795476 2 1 1 2 2
