file 17565628 1426689176                                        
version 2
run MCoA_ALL-0-20150318-15:32:49-10002
attr configname MCoA_ALL
attr datetime 20150318-15:32:49
attr experiment MCoA_ALL
attr inifile VoIPMCoACN.ini
attr iterationvars ""
attr iterationvars2 $repetition=0
attr measurement ""
attr network VoIPMCoAMulti
attr processid 10002
attr repetition 0
attr replication #0
attr resultdir results
attr runnumber 0
attr seedset 0

vector 0  VoIPMCoAMulti.Ra.networkLayer.ipv6  IPv6Active_Event  ETV
vector 51  VoIPMCoAMulti.CN[0].networkLayer.ipv6  IPv6Active_Event  ETV
vector 76  VoIPMCoAMulti.HA.networkLayer.ipv6  IPv6Active_Event  ETV
vector 133  VoIPMCoAMulti.MN[0].networkLayer.ipv6  IPv6Active_Event  ETV
vector 156  VoIPMCoAMulti.MN[1].networkLayer.ipv6  IPv6Active_Event  ETV
vector 162  VoIPMCoAMulti.R1.networkLayer.ipv6  IPv6Active_Event  ETV
vector 241  VoIPMCoAMulti.Rb.networkLayer.ipv6  IPv6Active_Event  ETV
vector 109  VoIPMCoAMulti.AP_HA.wlan.mac  RadioState  ETV
attr enum  "IDLE=0, RECV=1, SLEEP=3, TRANSMIT=2"
attr enumname  RadioState
vector 108  VoIPMCoAMulti.AP_HA.wlan.mac  State  ETV
attr enum  "BACKOFF=3, DEFER=1, IDLE=0, RECEIVE=8, WAITACK=4, WAITBROADCAST=5, WAITCTS=6, WAITDIFS=2, WAITSIFS=7"
attr enumname  Ieee80211Mac
vector 137  VoIPMCoAMulti.MN[0].wlan[0].mac  RadioState  ETV
attr enum  "IDLE=0, RECV=1, SLEEP=3, TRANSMIT=2"
attr enumname  RadioState
vector 136  VoIPMCoAMulti.MN[0].wlan[0].mac  State  ETV
attr enum  "BACKOFF=3, DEFER=1, IDLE=0, RECEIVE=8, WAITACK=4, WAITBROADCAST=5, WAITCTS=6, WAITDIFS=2, WAITSIFS=7"
attr enumname  Ieee80211Mac
vector 142  VoIPMCoAMulti.MN[0].wlan[1].mac  RadioState  ETV
attr enum  "IDLE=0, RECV=1, SLEEP=3, TRANSMIT=2"
attr enumname  RadioState
vector 141  VoIPMCoAMulti.MN[0].wlan[1].mac  State  ETV
attr enum  "BACKOFF=3, DEFER=1, IDLE=0, RECEIVE=8, WAITACK=4, WAITBROADCAST=5, WAITCTS=6, WAITDIFS=2, WAITSIFS=7"
attr enumname  Ieee80211Mac
vector 147  VoIPMCoAMulti.MN[0].wlan[2].mac  RadioState  ETV
attr enum  "IDLE=0, RECV=1, SLEEP=3, TRANSMIT=2"
attr enumname  RadioState
vector 146  VoIPMCoAMulti.MN[0].wlan[2].mac  State  ETV
attr enum  "BACKOFF=3, DEFER=1, IDLE=0, RECEIVE=8, WAITACK=4, WAITBROADCAST=5, WAITCTS=6, WAITDIFS=2, WAITSIFS=7"
attr enumname  Ieee80211Mac
vector 160  VoIPMCoAMulti.MN[1].wlan[0].mac  RadioState  ETV
attr enum  "IDLE=0, RECV=1, SLEEP=3, TRANSMIT=2"
attr enumname  RadioState
vector 159  VoIPMCoAMulti.MN[1].wlan[0].mac  State  ETV
attr enum  "BACKOFF=3, DEFER=1, IDLE=0, RECEIVE=8, WAITACK=4, WAITBROADCAST=5, WAITCTS=6, WAITDIFS=2, WAITSIFS=7"
attr enumname  Ieee80211Mac
vector 209  VoIPMCoAMulti.AP_1.wlan.mac  RadioState  ETV
attr enum  "IDLE=0, RECV=1, SLEEP=3, TRANSMIT=2"
attr enumname  RadioState
vector 208  VoIPMCoAMulti.AP_1.wlan.mac  State  ETV
attr enum  "BACKOFF=3, DEFER=1, IDLE=0, RECEIVE=8, WAITACK=4, WAITBROADCAST=5, WAITCTS=6, WAITDIFS=2, WAITSIFS=7"
attr enumname  Ieee80211Mac
vector 227  VoIPMCoAMulti.AP_2.wlan.mac  RadioState  ETV
attr enum  "IDLE=0, RECV=1, SLEEP=3, TRANSMIT=2"
attr enumname  RadioState
vector 226  VoIPMCoAMulti.AP_2.wlan.mac  State  ETV
attr enum  "BACKOFF=3, DEFER=1, IDLE=0, RECEIVE=8, WAITACK=4, WAITBROADCAST=5, WAITCTS=6, WAITDIFS=2, WAITSIFS=7"
attr enumname  Ieee80211Mac
vector 43  VoIPMCoAMulti.CN[0].udpApp[0]  "MCOA VIDEO Packet Sent"  ETV
vector 177  VoIPMCoAMulti.R1.eth[1].queue  "queue length"  ETV
vector 91  VoIPMCoAMulti.HA.eth[1].queue  "queue length"  ETV
vector 191  VoIPMCoAMulti.R1.eth[2].queue  "queue length"  ETV
vector 271  VoIPMCoAMulti.CN[0].networkLayer.neighbourDiscovery  "Starting DAD"  ETV
vector 324  VoIPMCoAMulti.Rb.networkLayer.neighbourDiscovery  "Starting DAD"  ETV
vector 270  VoIPMCoAMulti.Ra.networkLayer.neighbourDiscovery  "Starting DAD"  ETV
vector 323  VoIPMCoAMulti.R1.networkLayer.neighbourDiscovery  "Starting DAD"  ETV
vector 297  VoIPMCoAMulti.MN[0].networkLayer.neighbourDiscovery  "Starting DAD"  ETV
vector 284  VoIPMCoAMulti.HA.networkLayer.neighbourDiscovery  "Starting DAD"  ETV
vector 310  VoIPMCoAMulti.MN[1].networkLayer.neighbourDiscovery  "Starting DAD"  ETV
vector 3  VoIPMCoAMulti.Ra.eth[0].mac  framesSent  ETV
vector 5  VoIPMCoAMulti.Ra.eth[0].mac  bytesSent  ETV
vector 17  VoIPMCoAMulti.Ra.eth[1].mac  framesSent  ETV
vector 19  VoIPMCoAMulti.Ra.eth[1].mac  bytesSent  ETV
vector 31  VoIPMCoAMulti.Ra.eth[2].mac  framesSent  ETV
vector 33  VoIPMCoAMulti.Ra.eth[2].mac  bytesSent  ETV
vector 54  VoIPMCoAMulti.CN[0].eth[0].mac  framesSent  ETV
vector 56  VoIPMCoAMulti.CN[0].eth[0].mac  bytesSent  ETV
vector 79  VoIPMCoAMulti.HA.eth[0].mac  framesSent  ETV
vector 81  VoIPMCoAMulti.HA.eth[0].mac  bytesSent  ETV
vector 93  VoIPMCoAMulti.HA.eth[1].mac  framesSent  ETV
vector 95  VoIPMCoAMulti.HA.eth[1].mac  bytesSent  ETV
vector 165  VoIPMCoAMulti.R1.eth[0].mac  framesSent  ETV
vector 167  VoIPMCoAMulti.R1.eth[0].mac  bytesSent  ETV
vector 179  VoIPMCoAMulti.R1.eth[1].mac  framesSent  ETV
vector 181  VoIPMCoAMulti.R1.eth[1].mac  bytesSent  ETV
vector 193  VoIPMCoAMulti.R1.eth[2].mac  framesSent  ETV
vector 195  VoIPMCoAMulti.R1.eth[2].mac  bytesSent  ETV
vector 244  VoIPMCoAMulti.Rb.eth[0].mac  framesSent  ETV
vector 246  VoIPMCoAMulti.Rb.eth[0].mac  bytesSent  ETV
vector 258  VoIPMCoAMulti.Rb.eth[1].mac  framesSent  ETV
vector 260  VoIPMCoAMulti.Rb.eth[1].mac  bytesSent  ETV
vector 80  VoIPMCoAMulti.HA.eth[0].mac  framesReceivedOK  ETV
vector 82  VoIPMCoAMulti.HA.eth[0].mac  bytesReceivedOK  ETV
vector 86  VoIPMCoAMulti.HA.eth[0].mac  framesPassedToHL  ETV
vector 166  VoIPMCoAMulti.R1.eth[0].mac  framesReceivedOK  ETV
vector 168  VoIPMCoAMulti.R1.eth[0].mac  bytesReceivedOK  ETV
vector 172  VoIPMCoAMulti.R1.eth[0].mac  framesPassedToHL  ETV
vector 4  VoIPMCoAMulti.Ra.eth[0].mac  framesReceivedOK  ETV
vector 6  VoIPMCoAMulti.Ra.eth[0].mac  bytesReceivedOK  ETV
vector 10  VoIPMCoAMulti.Ra.eth[0].mac  framesPassedToHL  ETV
vector 112  VoIPMCoAMulti.AP_HA.eth[0]  framesReceivedOK  ETV
vector 114  VoIPMCoAMulti.AP_HA.eth[0]  bytesReceivedOK  ETV
vector 118  VoIPMCoAMulti.AP_HA.eth[0]  framesPassedToHL  ETV
vector 18  VoIPMCoAMulti.Ra.eth[1].mac  framesReceivedOK  ETV
vector 20  VoIPMCoAMulti.Ra.eth[1].mac  bytesReceivedOK  ETV
vector 24  VoIPMCoAMulti.Ra.eth[1].mac  framesPassedToHL  ETV
vector 212  VoIPMCoAMulti.AP_1.eth[0]  framesReceivedOK  ETV
vector 214  VoIPMCoAMulti.AP_1.eth[0]  bytesReceivedOK  ETV
vector 218  VoIPMCoAMulti.AP_1.eth[0]  framesPassedToHL  ETV
vector 230  VoIPMCoAMulti.AP_2.eth[0]  framesReceivedOK  ETV
vector 232  VoIPMCoAMulti.AP_2.eth[0]  bytesReceivedOK  ETV
vector 236  VoIPMCoAMulti.AP_2.eth[0]  framesPassedToHL  ETV
vector 105  VoIPMCoAMulti.AP_HA.relayUnit  "buffer level"  ETV
vector 205  VoIPMCoAMulti.AP_1.relayUnit  "buffer level"  ETV
vector 223  VoIPMCoAMulti.AP_2.relayUnit  "buffer level"  ETV
vector 106  VoIPMCoAMulti.AP_HA.wlan.mgmt  "queue length"  ETV
vector 206  VoIPMCoAMulti.AP_1.wlan.mgmt  "queue length"  ETV
vector 224  VoIPMCoAMulti.AP_2.wlan.mgmt  "queue length"  ETV
vector 245  VoIPMCoAMulti.Rb.eth[0].mac  framesReceivedOK  ETV
vector 247  VoIPMCoAMulti.Rb.eth[0].mac  bytesReceivedOK  ETV
vector 251  VoIPMCoAMulti.Rb.eth[0].mac  framesPassedToHL  ETV
vector 32  VoIPMCoAMulti.Ra.eth[2].mac  framesReceivedOK  ETV
vector 34  VoIPMCoAMulti.Ra.eth[2].mac  bytesReceivedOK  ETV
vector 38  VoIPMCoAMulti.Ra.eth[2].mac  framesPassedToHL  ETV
vector 259  VoIPMCoAMulti.Rb.eth[1].mac  framesReceivedOK  ETV
vector 261  VoIPMCoAMulti.Rb.eth[1].mac  bytesReceivedOK  ETV
vector 265  VoIPMCoAMulti.Rb.eth[1].mac  framesPassedToHL  ETV
vector 55  VoIPMCoAMulti.CN[0].eth[0].mac  framesReceivedOK  ETV
vector 57  VoIPMCoAMulti.CN[0].eth[0].mac  bytesReceivedOK  ETV
vector 61  VoIPMCoAMulti.CN[0].eth[0].mac  framesPassedToHL  ETV
vector 161  VoIPMCoAMulti.MN[1].wlan[0].radio  "MAC loss rate"  ETV
vector 111  VoIPMCoAMulti.AP_HA.eth[0]  framesSent  ETV
vector 113  VoIPMCoAMulti.AP_HA.eth[0]  bytesSent  ETV
vector 94  VoIPMCoAMulti.HA.eth[1].mac  framesReceivedOK  ETV
vector 96  VoIPMCoAMulti.HA.eth[1].mac  bytesReceivedOK  ETV
vector 100  VoIPMCoAMulti.HA.eth[1].mac  framesPassedToHL  ETV
vector 138  VoIPMCoAMulti.MN[0].wlan[0].radio  "MAC loss rate"  ETV
vector 52  VoIPMCoAMulti.CN[0].eth[0].queue  "queue length"  ETV
vector 268  VoIPMCoAMulti.Rb.eth[1].mac  collisions  ETV
vector 269  VoIPMCoAMulti.Rb.eth[1].mac  backoffs  ETV
vector 64  VoIPMCoAMulti.CN[0].eth[0].mac  collisions  ETV
vector 77  VoIPMCoAMulti.HA.eth[0].queue  "queue length"  ETV
vector 29  VoIPMCoAMulti.Ra.eth[2].queue  "queue length"  ETV
vector 256  VoIPMCoAMulti.Rb.eth[1].queue  "queue length"  ETV
vector 110  VoIPMCoAMulti.AP_HA.wlan.radio  "MAC loss rate"  ETV
vector 298  VoIPMCoAMulti.MN[0].networkLayer.xMobileIPv6  "BU to HA"  ETV
vector 211  VoIPMCoAMulti.AP_1.eth[0]  framesSent  ETV
vector 213  VoIPMCoAMulti.AP_1.eth[0]  bytesSent  ETV
vector 143  VoIPMCoAMulti.MN[0].wlan[1].radio  "MAC loss rate"  ETV
vector 180  VoIPMCoAMulti.R1.eth[1].mac  framesReceivedOK  ETV
vector 182  VoIPMCoAMulti.R1.eth[1].mac  bytesReceivedOK  ETV
vector 186  VoIPMCoAMulti.R1.eth[1].mac  framesPassedToHL  ETV
vector 288  VoIPMCoAMulti.HA.networkLayer.xMobileIPv6  "BA to MN"  ETV
vector 15  VoIPMCoAMulti.Ra.eth[1].queue  "queue length"  ETV
vector 302  VoIPMCoAMulti.MN[0].networkLayer.xMobileIPv6  "BA from HA"  ETV
vector 304  VoIPMCoAMulti.MN[0].networkLayer.xMobileIPv6  "HoTI to CN"  ETV
vector 305  VoIPMCoAMulti.MN[0].networkLayer.xMobileIPv6  "CoTI to CN"  ETV
vector 139  VoIPMCoAMulti.MN[0].wlan[1].mgmt  "queue length"  ETV
vector 293  VoIPMCoAMulti.HA.networkLayer.xMobileIPv6  "HoT to MN"  ETV
vector 294  VoIPMCoAMulti.HA.networkLayer.xMobileIPv6  "CoT to MN"  ETV
vector 308  VoIPMCoAMulti.MN[0].networkLayer.xMobileIPv6  "HoT from CN"  ETV
vector 309  VoIPMCoAMulti.MN[0].networkLayer.xMobileIPv6  "CoT from CN"  ETV
vector 299  VoIPMCoAMulti.MN[0].networkLayer.xMobileIPv6  "BU to CN"  ETV
vector 280  VoIPMCoAMulti.CN[0].networkLayer.xMobileIPv6  "HoT to MN"  ETV
vector 281  VoIPMCoAMulti.CN[0].networkLayer.xMobileIPv6  "CoT to MN"  ETV
vector 275  VoIPMCoAMulti.CN[0].networkLayer.xMobileIPv6  "BA to MN"  ETV
vector 303  VoIPMCoAMulti.MN[0].networkLayer.xMobileIPv6  "BA from CN"  ETV
vector 210  VoIPMCoAMulti.AP_1.wlan.radio  "MAC loss rate"  ETV
vector 148  VoIPMCoAMulti.MN[0].wlan[2].radio  "MAC loss rate"  ETV
vector 242  VoIPMCoAMulti.Rb.eth[0].queue  "queue length"  ETV
vector 229  VoIPMCoAMulti.AP_2.eth[0]  framesSent  ETV
vector 231  VoIPMCoAMulti.AP_2.eth[0]  bytesSent  ETV
vector 194  VoIPMCoAMulti.R1.eth[2].mac  framesReceivedOK  ETV
vector 196  VoIPMCoAMulti.R1.eth[2].mac  bytesReceivedOK  ETV
vector 200  VoIPMCoAMulti.R1.eth[2].mac  framesPassedToHL  ETV
vector 144  VoIPMCoAMulti.MN[0].wlan[2].mgmt  "queue length"  ETV
vector 228  VoIPMCoAMulti.AP_2.wlan.radio  "MAC loss rate"  ETV
0	10766 8 0 0 0 0 1 1 1 1 1
3	10774 1323 555 87585 1.0000672 43.70682890652 59 1 59 1770 70210
4	12097 525 817 87598 1.0100672 43.72689610652 21 1 21 231 3311
5	12622 1478 555 87585 1.0000672 43.70682890652 59 64 17562 608774 8020136244
6	14100 568 817 87598 1.0100672 43.72689610652 21 64 2804 31520 66567536
10	14668 546 817 87598 1.0100672 43.72689610652 21 1 21 231 3311
15	15214 254 29815 102896 14.568556617339 50.0402736 10 0 3 11 21
17	15468 8523 556 116182 1.0000672 55.0404128 356 1 356 63546 15102766
18	23991 480 819 103064 1.0100672 50.060272 18 1 18 171 2109
19	24471 9343 556 116182 1.0000672 55.0404128 356 64 113452 19981954 1518459001580
20	33814 514 819 103064 1.0100672 50.060272 18 64 1846 16510 20790892
24	34328 480 819 103064 1.0100672 50.060272 18 1 18 171 2109
29	34808 54 19297 19301 10.080695940874 10.080764740874 2 0 1 1 1
31	34862 306 557 79448 1.0000672 38.933303461976 12 1 12 78 650
32	35168 9254 1465 116174 1.0200672 55.040344 388 1 388 75466 19545694
33	44422 327 557 79448 1.0000672 38.933303461976 12 64 1046 5996 4125864
34	44749 10192 1465 116174 1.0200672 55.040344 388 64 127410 24972886 2130984675988
38	54941 9254 1465 116174 1.0200672 55.040344 388 1 388 75466 19545694
43	64195 3296 2 115985 0 55 201 1 201 20301 2727101
51	67491 9 0 0 0 0 1 1 1 1 1
52	67500 10486 14921 116009 8 55.0002064 562 0 6 1053 3149
54	77986 9509 558 116013 1.0000672 55.0002752 398 1 398 79401 21094199
55	87495 388 1467 87377 1.0200672 43.5420656 15 1 15 120 1240
56	87883 10470 558 116013 1.0000672 55.0002752 398 64 129662 25920090 2250129680556
57	98353 414 1467 87377 1.0200672 43.5420656 15 64 1238 8962 7410572
61	98767 388 1467 87377 1.0200672 43.5420656 15 1 15 120 1240
64	99155 131 15001 87367 8.0400768 43.5413808 6 1 6 21 91
76	99286 37 0 69676 0 35 3 1 2 4 6
77	99323 96 19010 29723 10.030492740874 14.551656 4 0 1 2 2
79	99419 546 559 87596 1.0000672 43.71689610652 21 1 21 231 3311
80	99965 1383 815 87587 1.0100672 43.71682890652 59 1 59 1770 70210
81	101348 589 559 87596 1.0000672 43.71689610652 21 64 2804 31520 66567536
82	101937 1538 815 87587 1.0100672 43.71682890652 59 64 17562 608774 8020136244
86	103475 1383 815 87587 1.0100672 43.71682890652 59 1 59 1770 70210
91	104858 932 76 6927 0.115677423169 4.132924239142 42 0 19 365 4585
93	105790 120556 560 390352 1.0000672 199.97119753139 3925 1 3925 7704775 20163396175
94	226346 156 6904 31648 4.132146639142 15.010567880735 6 1 6 21 91
95	226502 128010 560 390352 1.0000672 199.97119753139 3925 64 263680 539380412 95424894930896
96	354512 166 6904 31648 4.132146639142 15.010567880735 6 40 256 880 162816
100	354678 162 6904 31648 4.132146639142 15.010567880735 6 1 6 21 91
105	354840 231935 825 390374 1.0100672 199.98119953139 7862 0 466 263936 22695008
106	586775 898 878 6996 1.0102036 4.143388587376 38 0 16 289 3115
108	587673 2428964 0 390400 0 199.985213900997 83512 0 7 215704 815236
109	3016637 704040 0 390395 0 199.985023900997 24226 0 2 24070 47986
110	3720677 28 24916 24916 12.560837523723 12.560837523723 1 0 0 0 0
111	3720705 162 6863 31610 4.122146639142 15.000567880735 6 1 6 21 91
112	3720867 124493 818 390372 1.0100672 199.98119753139 3925 1 3925 7704775 20163396175
113	3845360 172 6863 31610 4.122146639142 15.000567880735 6 40 256 880 162816
114	3845532 131947 818 390372 1.0100672 199.98119753139 3925 64 263680 539380412 95424894930896
118	3977479 124493 818 390372 1.0100672 199.98119753139 3925 1 3925 7704775 20163396175
133	4101972 10 0 0 0 0 1 1 1 1 1
136	4101982 682836 0 390021 0 199.785545822748 23438 0 7 16360 63784
137	4784818 390342 0 390019 0 199.785295822748 13396 0 2 7648 9552
138	5175160 1665 8215 348539 4.735155690365 178.422970798746 57 0 0 0 0
139	5176825 110 30034 30115 14.60980413342 14.612056906378 4 0 2 4 6
141	5176935 882176 0 390320 0 199.944516526065 30316 0 7 12424 55628
142	6059111 552072 0 390319 0 199.944516526065 18972 0 2 10390 12202
143	6611183 2480 29424 387821 14.488107804593 198.672179584298 85 0 0 0 0
144	6613663 112 78551 78601 38.768313213836 38.770517239654 4 0 2 4 6
146	6613775 646992 0 390365 0 199.971760254551 22246 0 7 18554 73526
147	7260767 359172 0 390364 0 199.971760254551 12368 0 2 7292 9512
148	7619939 1454 77491 388177 38.425646397976 198.862655546447 50 0 0 0 0
156	7621393 10 0 0 0 0 1 1 1 1 1
159	7621403 1078566 0 390397 0 199.985024332493 37070 0 7 350 1390
160	8699969 712320 0 390396 0 199.985024332493 24468 0 2 12250 12286
161	9412289 3560 6357 389946 3.976739013338 199.751718545941 122 0 0.02 0.02 0.0004
162	9415849 70 0 89434 0 45 5 1 2 7 11
165	9415919 498 561 102982 1.0000672 50.050272 18 1 18 171 2109
166	9416417 8879 816 116222 1.0100672 55.0504128 356 1 356 63546 15102766
167	9425296 532 561 102982 1.0000672 50.050272 18 64 1846 16510 20790892
168	9425828 9699 816 116222 1.0100672 55.0504128 356 64 113452 19981954 1518459001580
172	9435527 8879 816 116222 1.0100672 55.0504128 356 1 356 63546 15102766
177	9444406 1080 73 29979 0.09995410364 14.599992221999 46 0 20 409 5359
179	9445486 127012 562 390407 1.0000672 199.997252273593 4028 1 4028 8114406 21792589714
180	9572498 281 29483 103303 14.497953417339 50.072016391093 10 1 10 55 385
181	9572779 135065 562 390407 1.0000672 199.997252273593 4028 64 307396 684537706 1.4693616627016e+14
182	9707844 300 29483 103303 14.497953417339 50.072016391093 10 108 756 4344 2398376
186	9708144 281 29483 103303 14.497953417339 50.072016391093 10 1 10 55 385
191	9708425 960 79 801 0.118605855963 1.0014112 42 0 21 441 6181
193	9709385 123582 563 390333 1.0000672 199.961462004965 3897 1 3897 7595253 19734999045
194	9832967 250 78267 80847 38.69662730652 39.404610397338 9 1 9 45 285
195	9833217 131032 563 390333 1.0000672 199.961462004965 3897 64 267502 541541852 98600375821744
196	9964249 268 78267 80847 38.69662730652 39.404610397338 9 130 782 3896 2145752
200	9964517 250 78267 80847 38.69662730652 39.404610397338 9 1 9 45 285
205	9964767 236758 827 390311 1.0100672 199.944220117647 8074 0 506 308088 42711384
206	10201525 1058 879 103224 1.0102036 50.063075695731 44 0 16 298 3058
208	10202583 2464316 0 390325 0 199.944665935828 85360 0 7 221644 836656
209	12666899 728220 0 390318 0 199.944515935828 25234 0 2 24758 49042
210	13395119 112 40139 111208 18.56247786901 53.063457656212 4 0 0 0 0
211	13395231 281 29422 103166 14.487953417339 50.062016391093 10 1 10 55 385
212	13395512 126990 820 390309 1.0100672 199.944218117647 4027 1 4027 8110378 21776364930
213	13522502 300 29422 103166 14.487953417339 50.062016391093 10 108 756 4344 2398376
214	13522802 135041 820 390309 1.0100672 199.944218117647 4027 64 307332 684230310 1.4684167396935e+14
218	13657843 126990 820 390309 1.0100672 199.944218117647 4027 1 4027 8110378 21776364930
223	13784833 230478 828 390356 1.0100672 199.971464004965 7812 0 466 268284 25489848
224	14015311 2086 880 115094 1.0102036 54.562934778536 84 0 18 378 4294
226	14017397 2412604 0 390370 0 199.971829823146 82864 0 7 214252 809848
227	16430001 702034 0 390363 0 199.971759823146 24126 0 2 23916 47624
228	17132035 58 97912 359916 48.062935139114 184.414640935686 2 0 0 0 0
229	17132093 250 78214 80814 38.68662730652 39.394610397338 9 1 9 45 285
230	17132343 123595 821 390354 1.0100672 199.971462004965 3897 1 3897 7595253 19734999045
231	17255938 268 78214 80814 38.68662730652 39.394610397338 9 130 782 3896 2145752
232	17256206 131045 821 390354 1.0100672 199.971462004965 3897 64 267502 541541852 98600375821744
236	17387251 123595 821 390354 1.0100672 199.971462004965 3897 1 3897 7595253 19734999045
241	17510846 10 0 0 0 0 1 1 1 1 1
242	17510856 45 77731 77735 38.5200688 38.520136 2 0 1 1 1
244	17510901 9641 564 116078 1.0000672 55.020344 388 1 388 75466 19545694
245	17520542 319 1464 79481 1.0200672 38.953303461976 12 1 12 78 650
246	17520861 10579 564 116078 1.0000672 55.020344 388 64 127410 24972886 2130984675988
247	17531440 340 1464 79481 1.0200672 38.953303461976 12 64 1046 5996 4125864
251	17531780 319 1464 79481 1.0200672 38.953303461976 12 1 12 78 650
256	17532099 56 19436 19440 10.140899140874 10.140967940874 2 0 1 1 1
258	17532155 402 565 87319 1.0000672 43.5220656 15 1 15 120 1240
259	17532557 9763 1466 116070 1.0200672 55.0202752 392 1 392 77028 20155660
260	17542320 428 565 87319 1.0000672 43.5220656 15 64 1238 8962 7410572
261	17542748 10706 1466 116070 1.0200672 55.0202752 392 64 127666 25108512 2146343408824
265	17553454 9763 1466 116070 1.0200672 55.0202752 392 1 392 77028 20155660
268	17563217 137 14984 87312 8.0200768 43.5213808 6 1 6 21 91
269	17563354 132 14985 87314 8.02008 43.521384 6 1 6 21 91
270	17563486 75 137 137 0.233447027066 0.233447027066 3 1 1 3 3
271	17563561 50 92 3669 0.156140310969 2.528305054092 2 1 1 2 2
275	17563611 56 31137 79538 14.817551978349 38.973437861976 2 2 2 4 8
280	17563667 56 30563 78932 14.674860786096 38.831200273381 2 1 1 2 2
281	17563723 55 30574 78976 14.675603808939 38.83236328629 2 1 1 2 2
284	17563778 50 203 203 0.293585502868 0.293585502868 2 1 1 2 2
288	17563828 111 29612 79099 14.538321417339 38.863035691562 4 1 1 4 4
293	17563939 56 30328 78774 14.640652372114 38.799601447563 2 1 1 2 2
294	17563995 56 30341 78787 14.642064122229 38.800524460472 2 1 1 2 2
297	17564051 157 196 74250 0.289443216007 37.056120752066 6 1 1 6 6
298	17564208 56 29403 78188 14.487502957358 38.686143251543 2 1 1 2 2
299	17564264 633 30526 386286 14.672624976002 197.831604839653 22 1 1 22 22
302	17564897 55 30023 78540 14.60980413342 38.768313213836 2 1 1 2 2
303	17564952 56 31292 79823 14.878288680467 39.034260962301 2 1 1 2 2
304	17565008 110 30024 78543 14.60980413342 38.768313213836 4 1 1 4 4
305	17565118 110 30025 78544 14.60980413342 38.768313213836 4 1 1 4 4
308	17565228 112 30502 79349 14.671407116796 38.912252613133 4 1 1 4 4
309	17565340 112 30525 79247 14.672624976002 38.893005735133 4 1 1 4 4
310	17565452 51 259 4012 0.419663425534 2.746018912556 2 1 1 2 2
323	17565503 75 150 150 0.234158752695 0.234158752695 3 1 1 3 3
324	17565578 50 125 125 0.216189795476 0.216189795476 2 1 1 2 2
