file 17469079 1426634663                                        
version 2
run MCoA_ALL-0-20150318-00:24:16-12786
attr configname MCoA_ALL
attr datetime 20150318-00:24:16
attr experiment MCoA_ALL
attr inifile VoIPMCoACN.ini
attr iterationvars ""
attr iterationvars2 $repetition=0
attr measurement ""
attr network VoIPMCoAMulti
attr processid 12786
attr repetition 0
attr replication #0
attr resultdir results
attr runnumber 0
attr seedset 0

vector 0  VoIPMCoAMulti.Ra.networkLayer.ipv6  IPv6Active_Event  ETV
vector 51  VoIPMCoAMulti.CN[0].networkLayer.ipv6  IPv6Active_Event  ETV
vector 76  VoIPMCoAMulti.HA.networkLayer.ipv6  IPv6Active_Event  ETV
vector 133  VoIPMCoAMulti.MN[0].networkLayer.ipv6  IPv6Active_Event  ETV
vector 156  VoIPMCoAMulti.MN[1].networkLayer.ipv6  IPv6Active_Event  ETV
vector 162  VoIPMCoAMulti.R1.networkLayer.ipv6  IPv6Active_Event  ETV
vector 241  VoIPMCoAMulti.Rb.networkLayer.ipv6  IPv6Active_Event  ETV
vector 109  VoIPMCoAMulti.AP_HA.wlan.mac  RadioState  ETV
attr enum  "IDLE=0, RECV=1, SLEEP=3, TRANSMIT=2"
attr enumname  RadioState
vector 108  VoIPMCoAMulti.AP_HA.wlan.mac  State  ETV
attr enum  "BACKOFF=3, DEFER=1, IDLE=0, RECEIVE=8, WAITACK=4, WAITBROADCAST=5, WAITCTS=6, WAITDIFS=2, WAITSIFS=7"
attr enumname  Ieee80211Mac
vector 137  VoIPMCoAMulti.MN[0].wlan[0].mac  RadioState  ETV
attr enum  "IDLE=0, RECV=1, SLEEP=3, TRANSMIT=2"
attr enumname  RadioState
vector 136  VoIPMCoAMulti.MN[0].wlan[0].mac  State  ETV
attr enum  "BACKOFF=3, DEFER=1, IDLE=0, RECEIVE=8, WAITACK=4, WAITBROADCAST=5, WAITCTS=6, WAITDIFS=2, WAITSIFS=7"
attr enumname  Ieee80211Mac
vector 142  VoIPMCoAMulti.MN[0].wlan[1].mac  RadioState  ETV
attr enum  "IDLE=0, RECV=1, SLEEP=3, TRANSMIT=2"
attr enumname  RadioState
vector 141  VoIPMCoAMulti.MN[0].wlan[1].mac  State  ETV
attr enum  "BACKOFF=3, DEFER=1, IDLE=0, RECEIVE=8, WAITACK=4, WAITBROADCAST=5, WAITCTS=6, WAITDIFS=2, WAITSIFS=7"
attr enumname  Ieee80211Mac
vector 147  VoIPMCoAMulti.MN[0].wlan[2].mac  RadioState  ETV
attr enum  "IDLE=0, RECV=1, SLEEP=3, TRANSMIT=2"
attr enumname  RadioState
vector 146  VoIPMCoAMulti.MN[0].wlan[2].mac  State  ETV
attr enum  "BACKOFF=3, DEFER=1, IDLE=0, RECEIVE=8, WAITACK=4, WAITBROADCAST=5, WAITCTS=6, WAITDIFS=2, WAITSIFS=7"
attr enumname  Ieee80211Mac
vector 160  VoIPMCoAMulti.MN[1].wlan[0].mac  RadioState  ETV
attr enum  "IDLE=0, RECV=1, SLEEP=3, TRANSMIT=2"
attr enumname  RadioState
vector 159  VoIPMCoAMulti.MN[1].wlan[0].mac  State  ETV
attr enum  "BACKOFF=3, DEFER=1, IDLE=0, RECEIVE=8, WAITACK=4, WAITBROADCAST=5, WAITCTS=6, WAITDIFS=2, WAITSIFS=7"
attr enumname  Ieee80211Mac
vector 209  VoIPMCoAMulti.AP_1.wlan.mac  RadioState  ETV
attr enum  "IDLE=0, RECV=1, SLEEP=3, TRANSMIT=2"
attr enumname  RadioState
vector 208  VoIPMCoAMulti.AP_1.wlan.mac  State  ETV
attr enum  "BACKOFF=3, DEFER=1, IDLE=0, RECEIVE=8, WAITACK=4, WAITBROADCAST=5, WAITCTS=6, WAITDIFS=2, WAITSIFS=7"
attr enumname  Ieee80211Mac
vector 227  VoIPMCoAMulti.AP_2.wlan.mac  RadioState  ETV
attr enum  "IDLE=0, RECV=1, SLEEP=3, TRANSMIT=2"
attr enumname  RadioState
vector 226  VoIPMCoAMulti.AP_2.wlan.mac  State  ETV
attr enum  "BACKOFF=3, DEFER=1, IDLE=0, RECEIVE=8, WAITACK=4, WAITBROADCAST=5, WAITCTS=6, WAITDIFS=2, WAITSIFS=7"
attr enumname  Ieee80211Mac
vector 43  VoIPMCoAMulti.CN[0].udpApp[0]  "MCOA VIDEO Packet Sent"  ETV
vector 177  VoIPMCoAMulti.R1.eth[1].queue  "queue length"  ETV
vector 91  VoIPMCoAMulti.HA.eth[1].queue  "queue length"  ETV
vector 191  VoIPMCoAMulti.R1.eth[2].queue  "queue length"  ETV
vector 271  VoIPMCoAMulti.CN[0].networkLayer.neighbourDiscovery  "Starting DAD"  ETV
vector 324  VoIPMCoAMulti.Rb.networkLayer.neighbourDiscovery  "Starting DAD"  ETV
vector 270  VoIPMCoAMulti.Ra.networkLayer.neighbourDiscovery  "Starting DAD"  ETV
vector 323  VoIPMCoAMulti.R1.networkLayer.neighbourDiscovery  "Starting DAD"  ETV
vector 297  VoIPMCoAMulti.MN[0].networkLayer.neighbourDiscovery  "Starting DAD"  ETV
vector 284  VoIPMCoAMulti.HA.networkLayer.neighbourDiscovery  "Starting DAD"  ETV
vector 310  VoIPMCoAMulti.MN[1].networkLayer.neighbourDiscovery  "Starting DAD"  ETV
vector 3  VoIPMCoAMulti.Ra.eth[0].mac  framesSent  ETV
vector 5  VoIPMCoAMulti.Ra.eth[0].mac  bytesSent  ETV
vector 17  VoIPMCoAMulti.Ra.eth[1].mac  framesSent  ETV
vector 19  VoIPMCoAMulti.Ra.eth[1].mac  bytesSent  ETV
vector 31  VoIPMCoAMulti.Ra.eth[2].mac  framesSent  ETV
vector 33  VoIPMCoAMulti.Ra.eth[2].mac  bytesSent  ETV
vector 54  VoIPMCoAMulti.CN[0].eth[0].mac  framesSent  ETV
vector 56  VoIPMCoAMulti.CN[0].eth[0].mac  bytesSent  ETV
vector 79  VoIPMCoAMulti.HA.eth[0].mac  framesSent  ETV
vector 81  VoIPMCoAMulti.HA.eth[0].mac  bytesSent  ETV
vector 93  VoIPMCoAMulti.HA.eth[1].mac  framesSent  ETV
vector 95  VoIPMCoAMulti.HA.eth[1].mac  bytesSent  ETV
vector 165  VoIPMCoAMulti.R1.eth[0].mac  framesSent  ETV
vector 167  VoIPMCoAMulti.R1.eth[0].mac  bytesSent  ETV
vector 179  VoIPMCoAMulti.R1.eth[1].mac  framesSent  ETV
vector 181  VoIPMCoAMulti.R1.eth[1].mac  bytesSent  ETV
vector 193  VoIPMCoAMulti.R1.eth[2].mac  framesSent  ETV
vector 195  VoIPMCoAMulti.R1.eth[2].mac  bytesSent  ETV
vector 244  VoIPMCoAMulti.Rb.eth[0].mac  framesSent  ETV
vector 246  VoIPMCoAMulti.Rb.eth[0].mac  bytesSent  ETV
vector 258  VoIPMCoAMulti.Rb.eth[1].mac  framesSent  ETV
vector 260  VoIPMCoAMulti.Rb.eth[1].mac  bytesSent  ETV
vector 80  VoIPMCoAMulti.HA.eth[0].mac  framesReceivedOK  ETV
vector 82  VoIPMCoAMulti.HA.eth[0].mac  bytesReceivedOK  ETV
vector 86  VoIPMCoAMulti.HA.eth[0].mac  framesPassedToHL  ETV
vector 166  VoIPMCoAMulti.R1.eth[0].mac  framesReceivedOK  ETV
vector 168  VoIPMCoAMulti.R1.eth[0].mac  bytesReceivedOK  ETV
vector 172  VoIPMCoAMulti.R1.eth[0].mac  framesPassedToHL  ETV
vector 4  VoIPMCoAMulti.Ra.eth[0].mac  framesReceivedOK  ETV
vector 6  VoIPMCoAMulti.Ra.eth[0].mac  bytesReceivedOK  ETV
vector 10  VoIPMCoAMulti.Ra.eth[0].mac  framesPassedToHL  ETV
vector 112  VoIPMCoAMulti.AP_HA.eth[0]  framesReceivedOK  ETV
vector 114  VoIPMCoAMulti.AP_HA.eth[0]  bytesReceivedOK  ETV
vector 118  VoIPMCoAMulti.AP_HA.eth[0]  framesPassedToHL  ETV
vector 18  VoIPMCoAMulti.Ra.eth[1].mac  framesReceivedOK  ETV
vector 20  VoIPMCoAMulti.Ra.eth[1].mac  bytesReceivedOK  ETV
vector 24  VoIPMCoAMulti.Ra.eth[1].mac  framesPassedToHL  ETV
vector 212  VoIPMCoAMulti.AP_1.eth[0]  framesReceivedOK  ETV
vector 214  VoIPMCoAMulti.AP_1.eth[0]  bytesReceivedOK  ETV
vector 218  VoIPMCoAMulti.AP_1.eth[0]  framesPassedToHL  ETV
vector 230  VoIPMCoAMulti.AP_2.eth[0]  framesReceivedOK  ETV
vector 232  VoIPMCoAMulti.AP_2.eth[0]  bytesReceivedOK  ETV
vector 236  VoIPMCoAMulti.AP_2.eth[0]  framesPassedToHL  ETV
vector 105  VoIPMCoAMulti.AP_HA.relayUnit  "buffer level"  ETV
vector 205  VoIPMCoAMulti.AP_1.relayUnit  "buffer level"  ETV
vector 223  VoIPMCoAMulti.AP_2.relayUnit  "buffer level"  ETV
vector 106  VoIPMCoAMulti.AP_HA.wlan.mgmt  "queue length"  ETV
vector 206  VoIPMCoAMulti.AP_1.wlan.mgmt  "queue length"  ETV
vector 224  VoIPMCoAMulti.AP_2.wlan.mgmt  "queue length"  ETV
vector 245  VoIPMCoAMulti.Rb.eth[0].mac  framesReceivedOK  ETV
vector 247  VoIPMCoAMulti.Rb.eth[0].mac  bytesReceivedOK  ETV
vector 251  VoIPMCoAMulti.Rb.eth[0].mac  framesPassedToHL  ETV
vector 32  VoIPMCoAMulti.Ra.eth[2].mac  framesReceivedOK  ETV
vector 34  VoIPMCoAMulti.Ra.eth[2].mac  bytesReceivedOK  ETV
vector 38  VoIPMCoAMulti.Ra.eth[2].mac  framesPassedToHL  ETV
vector 259  VoIPMCoAMulti.Rb.eth[1].mac  framesReceivedOK  ETV
vector 261  VoIPMCoAMulti.Rb.eth[1].mac  bytesReceivedOK  ETV
vector 265  VoIPMCoAMulti.Rb.eth[1].mac  framesPassedToHL  ETV
vector 55  VoIPMCoAMulti.CN[0].eth[0].mac  framesReceivedOK  ETV
vector 57  VoIPMCoAMulti.CN[0].eth[0].mac  bytesReceivedOK  ETV
vector 61  VoIPMCoAMulti.CN[0].eth[0].mac  framesPassedToHL  ETV
vector 161  VoIPMCoAMulti.MN[1].wlan[0].radio  "MAC loss rate"  ETV
vector 111  VoIPMCoAMulti.AP_HA.eth[0]  framesSent  ETV
vector 113  VoIPMCoAMulti.AP_HA.eth[0]  bytesSent  ETV
vector 94  VoIPMCoAMulti.HA.eth[1].mac  framesReceivedOK  ETV
vector 96  VoIPMCoAMulti.HA.eth[1].mac  bytesReceivedOK  ETV
vector 100  VoIPMCoAMulti.HA.eth[1].mac  framesPassedToHL  ETV
vector 138  VoIPMCoAMulti.MN[0].wlan[0].radio  "MAC loss rate"  ETV
vector 52  VoIPMCoAMulti.CN[0].eth[0].queue  "queue length"  ETV
vector 268  VoIPMCoAMulti.Rb.eth[1].mac  collisions  ETV
vector 269  VoIPMCoAMulti.Rb.eth[1].mac  backoffs  ETV
vector 64  VoIPMCoAMulti.CN[0].eth[0].mac  collisions  ETV
vector 134  VoIPMCoAMulti.MN[0].wlan[0].mgmt  "queue length"  ETV
vector 110  VoIPMCoAMulti.AP_HA.wlan.radio  "MAC loss rate"  ETV
vector 143  VoIPMCoAMulti.MN[0].wlan[1].radio  "MAC loss rate"  ETV
vector 298  VoIPMCoAMulti.MN[0].networkLayer.xMobileIPv6  "BU to HA"  ETV
vector 211  VoIPMCoAMulti.AP_1.eth[0]  framesSent  ETV
vector 213  VoIPMCoAMulti.AP_1.eth[0]  bytesSent  ETV
vector 180  VoIPMCoAMulti.R1.eth[1].mac  framesReceivedOK  ETV
vector 182  VoIPMCoAMulti.R1.eth[1].mac  bytesReceivedOK  ETV
vector 186  VoIPMCoAMulti.R1.eth[1].mac  framesPassedToHL  ETV
vector 288  VoIPMCoAMulti.HA.networkLayer.xMobileIPv6  "BA to MN"  ETV
vector 302  VoIPMCoAMulti.MN[0].networkLayer.xMobileIPv6  "BA from HA"  ETV
vector 304  VoIPMCoAMulti.MN[0].networkLayer.xMobileIPv6  "HoTI to CN"  ETV
vector 305  VoIPMCoAMulti.MN[0].networkLayer.xMobileIPv6  "CoTI to CN"  ETV
vector 139  VoIPMCoAMulti.MN[0].wlan[1].mgmt  "queue length"  ETV
vector 293  VoIPMCoAMulti.HA.networkLayer.xMobileIPv6  "HoT to MN"  ETV
vector 294  VoIPMCoAMulti.HA.networkLayer.xMobileIPv6  "CoT to MN"  ETV
vector 308  VoIPMCoAMulti.MN[0].networkLayer.xMobileIPv6  "HoT from CN"  ETV
vector 309  VoIPMCoAMulti.MN[0].networkLayer.xMobileIPv6  "CoT from CN"  ETV
vector 299  VoIPMCoAMulti.MN[0].networkLayer.xMobileIPv6  "BU to CN"  ETV
vector 280  VoIPMCoAMulti.CN[0].networkLayer.xMobileIPv6  "HoT to MN"  ETV
vector 281  VoIPMCoAMulti.CN[0].networkLayer.xMobileIPv6  "CoT to MN"  ETV
vector 77  VoIPMCoAMulti.HA.eth[0].queue  "queue length"  ETV
vector 275  VoIPMCoAMulti.CN[0].networkLayer.xMobileIPv6  "BA to MN"  ETV
vector 303  VoIPMCoAMulti.MN[0].networkLayer.xMobileIPv6  "BA from CN"  ETV
vector 210  VoIPMCoAMulti.AP_1.wlan.radio  "MAC loss rate"  ETV
vector 148  VoIPMCoAMulti.MN[0].wlan[2].radio  "MAC loss rate"  ETV
vector 242  VoIPMCoAMulti.Rb.eth[0].queue  "queue length"  ETV
vector 229  VoIPMCoAMulti.AP_2.eth[0]  framesSent  ETV
vector 231  VoIPMCoAMulti.AP_2.eth[0]  bytesSent  ETV
vector 194  VoIPMCoAMulti.R1.eth[2].mac  framesReceivedOK  ETV
vector 196  VoIPMCoAMulti.R1.eth[2].mac  bytesReceivedOK  ETV
vector 200  VoIPMCoAMulti.R1.eth[2].mac  framesPassedToHL  ETV
vector 144  VoIPMCoAMulti.MN[0].wlan[2].mgmt  "queue length"  ETV
vector 228  VoIPMCoAMulti.AP_2.wlan.radio  "MAC loss rate"  ETV
vector 15  VoIPMCoAMulti.Ra.eth[1].queue  "queue length"  ETV
0	10707 8 0 0 0 0 1 1 1 1 1
3	10715 1388 555 87762 1.0000672 43.611031751078 62 1 62 1953 81375
4	12103 498 817 87777 1.0100672 43.631098951078 20 1 20 210 2870
5	12601 1552 555 87762 1.0000672 43.611031751078 62 64 18560 668542 9195815884
6	14153 536 817 87777 1.0100672 43.631098951078 20 64 2738 26192 52682872
10	14689 518 817 87777 1.0100672 43.631098951078 20 1 20 210 2870
15	15207 92 103577 103589 50.0401376 50.0402736 4 0 1 2 2
17	15299 8458 556 116988 1.0000672 55.0404128 354 1 354 62835 14850005
18	23757 478 819 103741 1.0100672 50.060272 18 1 18 171 2109
19	24235 9269 556 116988 1.0000672 55.0404128 354 64 112920 19763450 1495263380580
20	33504 512 819 103741 1.0100672 50.060272 18 64 1846 16510 20790892
24	34016 478 819 103741 1.0100672 50.060272 18 1 18 171 2109
31	34494 279 557 79356 1.0000672 38.839476253073 11 1 11 66 506
32	34773 9281 1465 116980 1.0200672 55.040344 389 1 389 75855 19697015
33	44054 298 557 79356 1.0000672 38.839476253073 11 64 980 5210 3387420
34	44352 10222 1465 116980 1.0200672 55.040344 389 64 127876 25120642 2151446227044
38	54574 9281 1465 116980 1.0200672 55.040344 389 1 389 75855 19697015
43	63855 3296 2 116819 0 55 201 1 201 20301 2727101
51	67151 9 0 0 0 0 1 1 1 1 1
52	67160 10486 14921 116843 8 55.0002064 562 0 6 1053 3149
54	77646 9510 558 116847 1.0000672 55.0002752 398 1 398 79401 21094199
55	87156 361 1467 87643 1.0200672 43.5418272 14 1 14 105 1015
56	87517 10471 558 116847 1.0000672 55.0002752 398 64 129662 25920770 2250153736716
57	97988 385 1467 87643 1.0200672 43.5418272 14 64 1172 7982 6295468
61	98373 361 1467 87643 1.0200672 43.5418272 14 1 14 105 1015
64	98734 108 15001 87637 8.0400768 43.540992 5 1 5 15 55
76	98842 37 0 69634 0 35 3 1 2 4 6
77	98879 42 31638 31639 15.051624 15.051656 2 0 1 1 1
79	98921 518 559 87775 1.0000672 43.621098951078 20 1 20 210 2870
80	99439 1451 815 87766 1.0100672 43.621031751078 62 1 62 1953 81375
81	100890 556 559 87775 1.0000672 43.621098951078 20 64 2738 26192 52682872
82	101446 1615 815 87766 1.0100672 43.621031751078 62 64 18560 668542 9195815884
86	103061 1451 815 87766 1.0100672 43.621031751078 62 1 62 1953 81375
91	104512 932 76 6927 0.115677423169 4.132924239142 42 0 19 365 4585
93	105444 122256 560 388570 1.0000672 199.938224975245 3980 1 3980 7922190 21022851530
94	227700 183 6904 31306 4.132146639142 15.010346211736 7 1 7 28 140
95	227883 129833 560 388570 1.0000672 199.938224975245 3980 64 268006 556931738 1.0018905113783e+14
96	357716 195 6904 31306 4.132146639142 15.010346211736 7 40 304 1192 259392
100	357911 190 6904 31306 4.132146639142 15.010346211736 7 1 7 28 140
105	358101 235227 825 388582 1.0100672 199.948226975245 7974 0 466 268310 23348972
106	593328 898 878 6996 1.0102036 4.143388587376 38 0 16 289 3115
108	594226 2452004 0 388665 0 199.985153900997 84314 0 7 217736 822876
109	3046230 710518 0 388656 0 199.985023900997 24454 0 2 24294 48430
110	3756748 28 23811 23811 12.063388429964 12.063388429964 1 0 0 0 0
111	3756776 190 6863 31231 4.122146639142 15.000346211736 7 1 7 28 140
112	3756966 126247 818 388580 1.0100672 199.948224975245 3980 1 3980 7922190 21022851530
113	3883213 202 6863 31231 4.122146639142 15.000346211736 7 40 304 1192 259392
114	3883415 133824 818 388580 1.0100672 199.948224975245 3980 64 268006 556931738 1.0018905113783e+14
118	4017239 126247 818 388580 1.0100672 199.948224975245 3980 1 3980 7922190 21022851530
133	4143486 10 0 0 0 0 1 1 1 1 1
134	4143496 43 18831 18864 10 10.000560245385 2 0 1 1 1
136	4143539 733108 0 388669 0 199.985425824466 25314 0 7 14404 56512
137	4876647 431836 0 388667 0 199.985295824466 14944 0 2 8316 10008
138	5308483 1912 8215 271636 4.735155690365 136.452969891949 66 0 0 0 0
139	5310395 112 30525 30575 14.885783389032 14.887807397506 4 0 2 4 6
141	5310507 836612 0 388404 0 199.843106129579 28798 0 7 13724 60432
142	6147119 516188 0 388402 0 199.842936129579 17760 0 2 9854 11806
143	6663307 2307 29468 329405 14.542664994204 166.64266503867 79 0 0 0 0
144	6665614 112 78459 78523 38.672516061462 38.675825554097 4 0 2 4 6
146	6665726 548618 0 388557 0 199.913017021176 18728 0 7 21882 84882
147	7214344 278362 0 388549 0 199.912927021176 9480 0 2 6000 8524
148	7492706 1005 77600 361545 38.424876677467 184.261127480276 34 0 0 0 0
156	7493711 10 0 0 0 0 1 1 1 1 1
159	7493721 1089090 0 388658 0 199.985024332493 37454 0 7 350 1390
160	8582811 719162 0 388657 0 199.985024332493 24716 0 2 12374 12410
161	9301973 3584 6357 387554 3.976739013338 199.33464542483 123 0 0.02 0.02 0.0004
162	9305557 70 0 89740 0 45 5 1 2 7 11
165	9305627 496 561 103666 1.0000672 50.050272 18 1 18 171 2109
166	9306123 8812 816 117058 1.0100672 55.0504128 354 1 354 62835 14850005
167	9314935 530 561 103666 1.0000672 50.050272 18 64 1846 16510 20790892
168	9315465 9623 816 117058 1.0100672 55.0504128 354 64 112920 19763450 1495263380580
172	9325088 8812 816 117058 1.0100672 55.0504128 354 1 354 62835 14850005
177	9333900 963 73 68904 0.09995410364 34.5502752 42 0 20 401 5341
179	9334863 125466 562 388649 1.0000672 199.982286502702 3980 1 3980 7922190 21022851530
180	9460329 280 30089 103970 14.77393270086 50.071995192977 10 1 10 55 385
181	9460609 133417 562 388649 1.0000672 199.982286502702 3980 64 303518 667243456 1.4141466250989e+14
182	9594026 299 30089 103970 14.77393270086 50.071995192977 10 108 756 4056 2139944
186	9594325 280 30089 103970 14.77393270086 50.071995192977 10 1 10 55 385
191	9594605 1014 79 78375 0.118605855963 38.66216655194 44 0 21 442 6182
193	9595619 123385 563 388610 1.0000672 199.950253324021 3892 1 3892 7575778 19659143910
194	9719004 251 78168 79551 38.600830151078 38.901744196894 9 1 9 45 285
195	9719255 130825 563 388610 1.0000672 199.950253324021 3892 64 267182 540064074 98225023441204
196	9850080 269 78168 79551 38.600830151078 38.901744196894 9 130 782 3896 2145752
200	9850349 251 78168 79551 38.600830151078 38.901744196894 9 1 9 45 285
205	9850600 233963 827 388673 1.0100672 199.992288502702 7980 0 506 304274 42092492
206	10084563 946 879 103908 1.0102036 50.063133898557 40 0 16 296 3056
208	10085509 2442860 0 388686 0 199.992674320883 84626 0 7 219776 829760
209	12528369 722040 0 388679 0 199.992584320883 25022 0 2 24556 48648
210	13250409 113 41053 113207 19.062477839028 53.563436306368 4 0 0 0 0
211	13250522 280 30059 103843 14.76393270086 50.061995192977 10 1 10 55 385
212	13250802 125477 820 388671 1.0100672 199.992286502702 3980 1 3980 7922190 21022851530
213	13376279 299 30059 103843 14.76393270086 50.061995192977 10 108 756 4056 2139944
214	13376578 133428 820 388671 1.0100672 199.992286502702 3980 64 303518 667243456 1.4141466250989e+14
218	13510006 125477 820 388671 1.0100672 199.992286502702 3980 1 3980 7922190 21022851530
223	13635483 230109 828 388626 1.0100672 199.960255324021 7802 0 466 267964 25469368
224	13865592 2549 880 117220 1.0102036 55.084756909082 100 0 18 396 4322
226	13868141 2451372 0 388642 0 199.962805096911 84194 0 7 218894 826430
227	16319513 716716 0 388640 0 199.962655096911 24630 0 2 24472 48784
228	17036229 28 98332 98332 48.062935719292 48.062935719292 1 0 0 0 0
229	17036257 251 78135 79516 38.590830151078 38.891744196894 9 1 9 45 285
230	17036508 123397 821 388624 1.0100672 199.960253324021 3892 1 3892 7575778 19659143910
231	17159905 269 78135 79516 38.590830151078 38.891744196894 9 130 782 3896 2145752
232	17160174 130837 821 388624 1.0100672 199.960253324021 3892 64 267182 540064074 98225023441204
236	17291011 123397 821 388624 1.0100672 199.960253324021 3892 1 3892 7575778 19659143910
241	17414408 10 0 0 0 0 1 1 1 1 1
242	17414418 45 77808 77812 38.5200688 38.520136 2 0 1 1 1
244	17414463 9669 564 116913 1.0000672 55.020344 389 1 389 75855 19697015
245	17424132 291 1464 79387 1.0200672 38.859476253073 11 1 11 66 506
246	17424423 10610 564 116913 1.0000672 55.020344 389 64 127876 25120642 2151446227044
247	17435033 310 1464 79387 1.0200672 38.859476253073 11 64 980 5210 3387420
251	17435343 291 1464 79387 1.0200672 38.859476253073 11 1 11 66 506
258	17435634 374 565 87607 1.0000672 43.5218272 14 1 14 105 1015
259	17436008 9787 1466 116905 1.0200672 55.0202752 393 1 393 77421 20310109
260	17445795 398 565 87607 1.0000672 43.5218272 14 64 1172 7982 6295468
261	17446193 10733 1466 116905 1.0200672 55.0202752 393 64 128132 25256524 2166880589448
265	17456926 9787 1466 116905 1.0200672 55.0202752 393 1 393 77421 20310109
268	17466713 113 14984 87594 8.0200768 43.520992 5 1 5 15 55
269	17466826 110 14985 87595 8.02008 43.5209952 5 1 5 15 55
270	17466936 75 137 137 0.233447027066 0.233447027066 3 1 1 3 3
271	17467011 50 92 3669 0.156140310969 2.528305054092 2 1 1 2 2
275	17467061 56 31853 79471 15.090721606758 38.879610653073 2 2 2 4 8
280	17467117 56 30907 78867 14.948590426897 38.736528590892 2 1 1 2 2
281	17467173 56 30927 78904 14.949313431134 38.737731609937 2 1 1 2 2
284	17467229 50 203 203 0.293585502868 0.293585502868 2 1 1 2 2
288	17467279 111 30240 79003 14.81430070086 38.767604481801 4 1 1 4 4
293	17467390 56 30744 78660 14.916971618423 38.704629752802 2 1 1 2 2
294	17467446 55 30781 78673 14.91781462266 38.705832771847 2 1 1 2 2
297	17467501 157 196 74414 0.289443216007 37.072962633309 6 1 1 6 6
298	17467658 56 30035 78116 14.763482250188 38.590346093031 2 1 1 2 2
299	17467714 632 30896 384799 14.948419176227 197.736393626824 22 1 1 22 22
302	17468346 56 30514 78448 14.885783389032 38.672516061462 2 1 1 2 2
303	17468402 55 32061 79680 15.15145829959 38.940433756461 2 1 1 2 2
304	17468457 112 30515 78451 14.885783389032 38.672516061462 4 1 1 4 4
305	17468569 112 30516 78452 14.885783389032 38.672516061462 4 1 1 4 4
308	17468681 111 30872 79244 14.947726356905 38.81758093371 4 1 1 4 4
309	17468792 111 30895 79162 14.948419176227 38.798374061846 4 1 1 4 4
310	17468903 51 259 4012 0.419663425534 2.746018912556 2 1 1 2 2
323	17468954 75 150 150 0.234158752695 0.234158752695 3 1 1 3 3
324	17469029 50 125 125 0.216189795476 0.216189795476 2 1 1 2 2
