file 15819270 1426514076                                        
version 2
run MCoA_ALL-0-20150316-14:54:28-19612
attr configname MCoA_ALL
attr datetime 20150316-14:54:28
attr experiment MCoA_ALL
attr inifile VoIPMCoACN.ini
attr iterationvars ""
attr iterationvars2 $repetition=0
attr measurement ""
attr network VoIPMCoAMulti
attr processid 19612
attr repetition 0
attr replication #0
attr resultdir results
attr runnumber 0
attr seedset 0

vector 0  VoIPMCoAMulti.Ra.networkLayer.ipv6  IPv6Active_Event  ETV
vector 51  VoIPMCoAMulti.CN[0].networkLayer.ipv6  IPv6Active_Event  ETV
vector 76  VoIPMCoAMulti.HA.networkLayer.ipv6  IPv6Active_Event  ETV
vector 133  VoIPMCoAMulti.MN[0].networkLayer.ipv6  IPv6Active_Event  ETV
vector 156  VoIPMCoAMulti.MN[1].networkLayer.ipv6  IPv6Active_Event  ETV
vector 162  VoIPMCoAMulti.R1.networkLayer.ipv6  IPv6Active_Event  ETV
vector 241  VoIPMCoAMulti.Rb.networkLayer.ipv6  IPv6Active_Event  ETV
vector 109  VoIPMCoAMulti.AP_HA.wlan.mac  RadioState  ETV
attr enum  "IDLE=0, RECV=1, SLEEP=3, TRANSMIT=2"
attr enumname  RadioState
vector 108  VoIPMCoAMulti.AP_HA.wlan.mac  State  ETV
attr enum  "BACKOFF=3, DEFER=1, IDLE=0, RECEIVE=8, WAITACK=4, WAITBROADCAST=5, WAITCTS=6, WAITDIFS=2, WAITSIFS=7"
attr enumname  Ieee80211Mac
vector 137  VoIPMCoAMulti.MN[0].wlan[0].mac  RadioState  ETV
attr enum  "IDLE=0, RECV=1, SLEEP=3, TRANSMIT=2"
attr enumname  RadioState
vector 136  VoIPMCoAMulti.MN[0].wlan[0].mac  State  ETV
attr enum  "BACKOFF=3, DEFER=1, IDLE=0, RECEIVE=8, WAITACK=4, WAITBROADCAST=5, WAITCTS=6, WAITDIFS=2, WAITSIFS=7"
attr enumname  Ieee80211Mac
vector 142  VoIPMCoAMulti.MN[0].wlan[1].mac  RadioState  ETV
attr enum  "IDLE=0, RECV=1, SLEEP=3, TRANSMIT=2"
attr enumname  RadioState
vector 141  VoIPMCoAMulti.MN[0].wlan[1].mac  State  ETV
attr enum  "BACKOFF=3, DEFER=1, IDLE=0, RECEIVE=8, WAITACK=4, WAITBROADCAST=5, WAITCTS=6, WAITDIFS=2, WAITSIFS=7"
attr enumname  Ieee80211Mac
vector 147  VoIPMCoAMulti.MN[0].wlan[2].mac  RadioState  ETV
attr enum  "IDLE=0, RECV=1, SLEEP=3, TRANSMIT=2"
attr enumname  RadioState
vector 146  VoIPMCoAMulti.MN[0].wlan[2].mac  State  ETV
attr enum  "BACKOFF=3, DEFER=1, IDLE=0, RECEIVE=8, WAITACK=4, WAITBROADCAST=5, WAITCTS=6, WAITDIFS=2, WAITSIFS=7"
attr enumname  Ieee80211Mac
vector 160  VoIPMCoAMulti.MN[1].wlan[0].mac  RadioState  ETV
attr enum  "IDLE=0, RECV=1, SLEEP=3, TRANSMIT=2"
attr enumname  RadioState
vector 159  VoIPMCoAMulti.MN[1].wlan[0].mac  State  ETV
attr enum  "BACKOFF=3, DEFER=1, IDLE=0, RECEIVE=8, WAITACK=4, WAITBROADCAST=5, WAITCTS=6, WAITDIFS=2, WAITSIFS=7"
attr enumname  Ieee80211Mac
vector 209  VoIPMCoAMulti.AP_1.wlan.mac  RadioState  ETV
attr enum  "IDLE=0, RECV=1, SLEEP=3, TRANSMIT=2"
attr enumname  RadioState
vector 208  VoIPMCoAMulti.AP_1.wlan.mac  State  ETV
attr enum  "BACKOFF=3, DEFER=1, IDLE=0, RECEIVE=8, WAITACK=4, WAITBROADCAST=5, WAITCTS=6, WAITDIFS=2, WAITSIFS=7"
attr enumname  Ieee80211Mac
vector 227  VoIPMCoAMulti.AP_2.wlan.mac  RadioState  ETV
attr enum  "IDLE=0, RECV=1, SLEEP=3, TRANSMIT=2"
attr enumname  RadioState
vector 226  VoIPMCoAMulti.AP_2.wlan.mac  State  ETV
attr enum  "BACKOFF=3, DEFER=1, IDLE=0, RECEIVE=8, WAITACK=4, WAITBROADCAST=5, WAITCTS=6, WAITDIFS=2, WAITSIFS=7"
attr enumname  Ieee80211Mac
vector 43  VoIPMCoAMulti.CN[0].udpApp[0]  "MCOA VIDEO Packet Sent"  ETV
vector 177  VoIPMCoAMulti.R1.eth[1].queue  "queue length"  ETV
vector 91  VoIPMCoAMulti.HA.eth[1].queue  "queue length"  ETV
vector 191  VoIPMCoAMulti.R1.eth[2].queue  "queue length"  ETV
vector 271  VoIPMCoAMulti.CN[0].networkLayer.neighbourDiscovery  "Starting DAD"  ETV
vector 324  VoIPMCoAMulti.Rb.networkLayer.neighbourDiscovery  "Starting DAD"  ETV
vector 270  VoIPMCoAMulti.Ra.networkLayer.neighbourDiscovery  "Starting DAD"  ETV
vector 323  VoIPMCoAMulti.R1.networkLayer.neighbourDiscovery  "Starting DAD"  ETV
vector 297  VoIPMCoAMulti.MN[0].networkLayer.neighbourDiscovery  "Starting DAD"  ETV
vector 284  VoIPMCoAMulti.HA.networkLayer.neighbourDiscovery  "Starting DAD"  ETV
vector 310  VoIPMCoAMulti.MN[1].networkLayer.neighbourDiscovery  "Starting DAD"  ETV
vector 3  VoIPMCoAMulti.Ra.eth[0].mac  framesSent  ETV
vector 5  VoIPMCoAMulti.Ra.eth[0].mac  bytesSent  ETV
vector 17  VoIPMCoAMulti.Ra.eth[1].mac  framesSent  ETV
vector 19  VoIPMCoAMulti.Ra.eth[1].mac  bytesSent  ETV
vector 31  VoIPMCoAMulti.Ra.eth[2].mac  framesSent  ETV
vector 33  VoIPMCoAMulti.Ra.eth[2].mac  bytesSent  ETV
vector 54  VoIPMCoAMulti.CN[0].eth[0].mac  framesSent  ETV
vector 56  VoIPMCoAMulti.CN[0].eth[0].mac  bytesSent  ETV
vector 79  VoIPMCoAMulti.HA.eth[0].mac  framesSent  ETV
vector 81  VoIPMCoAMulti.HA.eth[0].mac  bytesSent  ETV
vector 93  VoIPMCoAMulti.HA.eth[1].mac  framesSent  ETV
vector 95  VoIPMCoAMulti.HA.eth[1].mac  bytesSent  ETV
vector 165  VoIPMCoAMulti.R1.eth[0].mac  framesSent  ETV
vector 167  VoIPMCoAMulti.R1.eth[0].mac  bytesSent  ETV
vector 179  VoIPMCoAMulti.R1.eth[1].mac  framesSent  ETV
vector 181  VoIPMCoAMulti.R1.eth[1].mac  bytesSent  ETV
vector 193  VoIPMCoAMulti.R1.eth[2].mac  framesSent  ETV
vector 195  VoIPMCoAMulti.R1.eth[2].mac  bytesSent  ETV
vector 244  VoIPMCoAMulti.Rb.eth[0].mac  framesSent  ETV
vector 246  VoIPMCoAMulti.Rb.eth[0].mac  bytesSent  ETV
vector 258  VoIPMCoAMulti.Rb.eth[1].mac  framesSent  ETV
vector 260  VoIPMCoAMulti.Rb.eth[1].mac  bytesSent  ETV
vector 80  VoIPMCoAMulti.HA.eth[0].mac  framesReceivedOK  ETV
vector 82  VoIPMCoAMulti.HA.eth[0].mac  bytesReceivedOK  ETV
vector 86  VoIPMCoAMulti.HA.eth[0].mac  framesPassedToHL  ETV
vector 166  VoIPMCoAMulti.R1.eth[0].mac  framesReceivedOK  ETV
vector 168  VoIPMCoAMulti.R1.eth[0].mac  bytesReceivedOK  ETV
vector 172  VoIPMCoAMulti.R1.eth[0].mac  framesPassedToHL  ETV
vector 4  VoIPMCoAMulti.Ra.eth[0].mac  framesReceivedOK  ETV
vector 6  VoIPMCoAMulti.Ra.eth[0].mac  bytesReceivedOK  ETV
vector 10  VoIPMCoAMulti.Ra.eth[0].mac  framesPassedToHL  ETV
vector 112  VoIPMCoAMulti.AP_HA.eth[0]  framesReceivedOK  ETV
vector 114  VoIPMCoAMulti.AP_HA.eth[0]  bytesReceivedOK  ETV
vector 118  VoIPMCoAMulti.AP_HA.eth[0]  framesPassedToHL  ETV
vector 18  VoIPMCoAMulti.Ra.eth[1].mac  framesReceivedOK  ETV
vector 20  VoIPMCoAMulti.Ra.eth[1].mac  bytesReceivedOK  ETV
vector 24  VoIPMCoAMulti.Ra.eth[1].mac  framesPassedToHL  ETV
vector 212  VoIPMCoAMulti.AP_1.eth[0]  framesReceivedOK  ETV
vector 214  VoIPMCoAMulti.AP_1.eth[0]  bytesReceivedOK  ETV
vector 218  VoIPMCoAMulti.AP_1.eth[0]  framesPassedToHL  ETV
vector 230  VoIPMCoAMulti.AP_2.eth[0]  framesReceivedOK  ETV
vector 232  VoIPMCoAMulti.AP_2.eth[0]  bytesReceivedOK  ETV
vector 236  VoIPMCoAMulti.AP_2.eth[0]  framesPassedToHL  ETV
vector 105  VoIPMCoAMulti.AP_HA.relayUnit  "buffer level"  ETV
vector 205  VoIPMCoAMulti.AP_1.relayUnit  "buffer level"  ETV
vector 223  VoIPMCoAMulti.AP_2.relayUnit  "buffer level"  ETV
vector 106  VoIPMCoAMulti.AP_HA.wlan.mgmt  "queue length"  ETV
vector 206  VoIPMCoAMulti.AP_1.wlan.mgmt  "queue length"  ETV
vector 224  VoIPMCoAMulti.AP_2.wlan.mgmt  "queue length"  ETV
vector 245  VoIPMCoAMulti.Rb.eth[0].mac  framesReceivedOK  ETV
vector 247  VoIPMCoAMulti.Rb.eth[0].mac  bytesReceivedOK  ETV
vector 251  VoIPMCoAMulti.Rb.eth[0].mac  framesPassedToHL  ETV
vector 32  VoIPMCoAMulti.Ra.eth[2].mac  framesReceivedOK  ETV
vector 34  VoIPMCoAMulti.Ra.eth[2].mac  bytesReceivedOK  ETV
vector 38  VoIPMCoAMulti.Ra.eth[2].mac  framesPassedToHL  ETV
vector 259  VoIPMCoAMulti.Rb.eth[1].mac  framesReceivedOK  ETV
vector 261  VoIPMCoAMulti.Rb.eth[1].mac  bytesReceivedOK  ETV
vector 265  VoIPMCoAMulti.Rb.eth[1].mac  framesPassedToHL  ETV
vector 55  VoIPMCoAMulti.CN[0].eth[0].mac  framesReceivedOK  ETV
vector 57  VoIPMCoAMulti.CN[0].eth[0].mac  bytesReceivedOK  ETV
vector 61  VoIPMCoAMulti.CN[0].eth[0].mac  framesPassedToHL  ETV
vector 161  VoIPMCoAMulti.MN[1].wlan[0].radio  "MAC loss rate"  ETV
vector 111  VoIPMCoAMulti.AP_HA.eth[0]  framesSent  ETV
vector 113  VoIPMCoAMulti.AP_HA.eth[0]  bytesSent  ETV
vector 94  VoIPMCoAMulti.HA.eth[1].mac  framesReceivedOK  ETV
vector 96  VoIPMCoAMulti.HA.eth[1].mac  bytesReceivedOK  ETV
vector 100  VoIPMCoAMulti.HA.eth[1].mac  framesPassedToHL  ETV
vector 138  VoIPMCoAMulti.MN[0].wlan[0].radio  "MAC loss rate"  ETV
vector 52  VoIPMCoAMulti.CN[0].eth[0].queue  "queue length"  ETV
vector 268  VoIPMCoAMulti.Rb.eth[1].mac  collisions  ETV
vector 269  VoIPMCoAMulti.Rb.eth[1].mac  backoffs  ETV
vector 64  VoIPMCoAMulti.CN[0].eth[0].mac  collisions  ETV
vector 49  VoIPMCoAMulti.CN[0].pingApp  "PING: Ping Request"  ETV
vector 242  VoIPMCoAMulti.Rb.eth[0].queue  "queue length"  ETV
vector 1  VoIPMCoAMulti.Ra.eth[0].queue  "queue length"  ETV
vector 50  VoIPMCoAMulti.CN[0].pingApp  "PING: Ping Reply"  ETV
vector 47  VoIPMCoAMulti.CN[0].pingApp  pingRTT  ETV
vector 110  VoIPMCoAMulti.AP_HA.wlan.radio  "MAC loss rate"  ETV
vector 143  VoIPMCoAMulti.MN[0].wlan[1].radio  "MAC loss rate"  ETV
vector 298  VoIPMCoAMulti.MN[0].networkLayer.xMobileIPv6  "BU to HA"  ETV
vector 211  VoIPMCoAMulti.AP_1.eth[0]  framesSent  ETV
vector 213  VoIPMCoAMulti.AP_1.eth[0]  bytesSent  ETV
vector 180  VoIPMCoAMulti.R1.eth[1].mac  framesReceivedOK  ETV
vector 182  VoIPMCoAMulti.R1.eth[1].mac  bytesReceivedOK  ETV
vector 186  VoIPMCoAMulti.R1.eth[1].mac  framesPassedToHL  ETV
vector 288  VoIPMCoAMulti.HA.networkLayer.xMobileIPv6  "BA to MN"  ETV
vector 302  VoIPMCoAMulti.MN[0].networkLayer.xMobileIPv6  "BA from HA"  ETV
vector 304  VoIPMCoAMulti.MN[0].networkLayer.xMobileIPv6  "HoTI to CN"  ETV
vector 305  VoIPMCoAMulti.MN[0].networkLayer.xMobileIPv6  "CoTI to CN"  ETV
vector 139  VoIPMCoAMulti.MN[0].wlan[1].mgmt  "queue length"  ETV
vector 293  VoIPMCoAMulti.HA.networkLayer.xMobileIPv6  "HoT to MN"  ETV
vector 294  VoIPMCoAMulti.HA.networkLayer.xMobileIPv6  "CoT to MN"  ETV
vector 308  VoIPMCoAMulti.MN[0].networkLayer.xMobileIPv6  "HoT from CN"  ETV
vector 309  VoIPMCoAMulti.MN[0].networkLayer.xMobileIPv6  "CoT from CN"  ETV
vector 299  VoIPMCoAMulti.MN[0].networkLayer.xMobileIPv6  "BU to CN"  ETV
vector 280  VoIPMCoAMulti.CN[0].networkLayer.xMobileIPv6  "HoT to MN"  ETV
vector 281  VoIPMCoAMulti.CN[0].networkLayer.xMobileIPv6  "CoT to MN"  ETV
vector 275  VoIPMCoAMulti.CN[0].networkLayer.xMobileIPv6  "BA to MN"  ETV
vector 303  VoIPMCoAMulti.MN[0].networkLayer.xMobileIPv6  "BA from CN"  ETV
vector 15  VoIPMCoAMulti.Ra.eth[1].queue  "queue length"  ETV
vector 210  VoIPMCoAMulti.AP_1.wlan.radio  "MAC loss rate"  ETV
vector 48  VoIPMCoAMulti.CN[0].pingApp  pingDrop  ETV
vector 229  VoIPMCoAMulti.AP_2.eth[0]  framesSent  ETV
vector 231  VoIPMCoAMulti.AP_2.eth[0]  bytesSent  ETV
vector 194  VoIPMCoAMulti.R1.eth[2].mac  framesReceivedOK  ETV
vector 196  VoIPMCoAMulti.R1.eth[2].mac  bytesReceivedOK  ETV
vector 200  VoIPMCoAMulti.R1.eth[2].mac  framesPassedToHL  ETV
vector 144  VoIPMCoAMulti.MN[0].wlan[2].mgmt  "queue length"  ETV
vector 148  VoIPMCoAMulti.MN[0].wlan[2].radio  "MAC loss rate"  ETV
vector 228  VoIPMCoAMulti.AP_2.wlan.radio  "MAC loss rate"  ETV
vector 163  VoIPMCoAMulti.R1.eth[0].queue  "queue length"  ETV
0	10940 8 0 0 0 0 1 1 1 1 1
1	10948 252 19079 31443 10.0409536 15.0403216 12 0 1 6 6
3	11200 1525 555 90152 1.0000672 43.125236164023 68 1 68 2346 107134
4	12725 810 817 90182 1.0100672 43.145303364023 31 1 31 496 10416
5	13535 1706 555 90152 1.0000672 43.125236164023 68 64 19244 764892 10903325304
6	15241 870 817 90182 1.0100672 43.145303364023 31 64 3444 53262 126409972
10	16111 841 817 90182 1.0100672 43.145303364023 31 1 31 496 10416
15	16952 1919 34884 313988 16.0413616 158.04032 88 0 1 44 44
17	18871 12865 556 361403 1.0000672 182.0404464 528 1 528 139656 49205464
18	31736 2743 819 344542 1.0100672 173.081447953175 109 1 109 5995 437635
19	34479 14175 556 361403 1.0000672 182.0404464 528 64 136880 40004576 4000559319776
20	48654 2992 819 344542 1.0100672 173.081447953175 109 64 17096 895962 10361600780
24	51646 2743 819 344542 1.0100672 173.081447953175 109 1 109 5995 437635
31	54389 2967 557 361395 1.0000672 182.0402608 117 1 117 6903 540735
32	57356 13904 1465 361396 1.0200672 182.04032 573 1 573 164451 62875099
33	71260 3231 557 361395 1.0000672 182.0402608 117 64 18118 1016242 12437926460
34	74491 15375 1465 361396 1.0200672 182.04032 573 64 153702 49179498 5498344159300
38	89866 13904 1465 361396 1.0200672 182.04032 573 1 573 164451 62875099
43	103770 3300 2 120602 0 55 201 1 201 20301 2727101
47	107070 850 19734 344648 10.225639615758 173.121694353175 21 0.121694350699 0.225639615758 2.696764115322 0.35627429751317
48	107920 58 51841 334356 25.124595630883 168.121694364908 2 5 143 148 20474
49	107978 2876 18797 361302 10 182 173 0 172 14878 1710970
50	110854 595 19734 344648 10.225639615758 173.121694353175 21 0 163 1093 156319
51	111449 9 0 0 0 0 1 1 1 1 1
52	111458 12366 14921 300243 8 151.0000672 664 0 6 1394 4548
54	123824 14119 558 361311 1.0000672 182.0001264 580 1 580 168490 65205630
55	137943 3057 1467 344642 1.0200672 173.121694353175 119 1 119 7140 568820
56	141000 15604 558 361311 1.0000672 182.0001264 580 64 154774 49941892 5620834519816
57	156604 3323 1467 344642 1.0200672 173.121694353175 119 64 18246 1021764 12512725704
61	159927 3057 1467 344642 1.0200672 173.121694353175 119 1 119 7140 568820
64	162984 92 15001 300332 8.0400768 151.0400768 4 1 4 10 30
76	163076 37 0 72395 0 35 3 1 2 4 6
79	163113 841 559 90168 1.0000672 43.135303364023 31 1 31 496 10416
80	163954 1594 815 90159 1.0100672 43.135236164023 68 1 68 2346 107134
81	165548 901 559 90168 1.0000672 43.135303364023 31 64 3444 53262 126409972
82	166449 1775 815 90159 1.0100672 43.135236164023 68 64 19244 764892 10903325304
86	168224 1594 815 90159 1.0100672 43.135236164023 68 1 68 2346 107134
91	169818 1379 76 31492 0.115677423169 15.0504288 62 0 19 375 4595
93	171197 110231 560 362458 1.0000672 182.558006103082 3605 1 3605 6499815 15623388655
94	281428 657 6904 63687 4.132146639142 30.074345590319 24 1 24 300 4900
95	282085 117075 560 362458 1.0000672 182.558006103082 3605 64 245112 464484648 76596697583976
96	399160 698 6904 63687 4.132146639142 30.074345590319 24 40 2080 21756 29306448
100	399858 681 6904 63687 4.132146639142 30.074345590319 24 1 24 300 4900
105	400539 213295 825 362491 1.0100672 182.568008103082 7258 0 466 247192 22484208
106	613834 1099 878 28961 1.0102036 14.062537769033 46 0 16 293 3119
108	614933 2228766 0 362495 0 182.568058103082 76854 0 7 198385 750401
109	2843699 649908 0 362495 0 182.568058103082 22436 0 2 22220 44226
110	3493607 63 22756 119696 11.560837489275 54.636109768008 2 0.02 0.02 0.04 0.0008
111	3493670 681 6863 63663 4.122146639142 30.064345590319 24 1 24 300 4900
112	3494351 113847 818 362489 1.0100672 182.568006103082 3605 1 3605 6499815 15623388655
113	3608198 722 6863 63663 4.122146639142 30.064345590319 24 40 2080 21756 29306448
114	3608920 120691 818 362489 1.0100672 182.568006103082 3605 64 245112 464484648 76596697583976
118	3729611 113847 818 362489 1.0100672 182.568006103082 3605 1 3605 6499815 15623388655
133	3843458 10 0 0 0 0 1 1 1 1 1
136	3843468 555338 0 362334 0 182.485465823628 19364 0 7 19598 75786
137	4398806 294172 0 362332 0 182.485295823628 10328 0 2 6274 8494
138	4692978 1132 8215 191066 4.735155690365 90.585024715652 40 0 0 0 0
139	4694110 112 32234 32295 15.185281346413 15.187505317743 4 0 2 4 6
141	4694222 679920 0 362444 0 182.543306131669 23556 0 7 16652 72036
142	5374142 399156 0 362442 0 182.542936131669 13840 0 2 8070 10374
143	5773298 1645 29830 343135 14.463540774135 172.408684763894 57 0 0 0 0
144	5774943 112 80181 80231 38.187171728567 38.189175828141 4 0 2 4 6
146	5775055 453824 0 362484 0 182.562793547202 15548 0 7 22816 89484
147	6228879 212888 0 362483 0 182.562793547202 7284 0 2 4982 7666
148	6441767 647 80230 359591 38.189175828141 181.06086197465 22 0 0 0 0
156	6442414 10 0 0 0 0 1 1 1 1 1
159	6442424 992422 0 362386 0 182.52851871997 34244 0 7 648 2288
160	7434846 652540 0 362385 0 182.52851871997 22496 0 2 11274 11326
161	8087386 3252 6357 361923 3.976739013338 182.282450883642 112 0 0 0 0
162	8090638 70 0 92770 0 45 5 1 2 7 11
163	8090708 2697 170619 316164 80.0503792 159.050696 110 0 3 111 175
165	8093405 2852 561 344527 1.0000672 173.071447953175 109 1 109 5995 437635
166	8096257 13393 816 361421 1.0100672 182.0504464 528 1 528 139656 49205464
167	8109650 3101 561 344527 1.0000672 173.071447953175 109 64 17096 895962 10361600780
168	8112751 14703 816 361421 1.0100672 182.0504464 528 64 136880 40004576 4000559319776
172	8127454 13393 816 361421 1.0100672 182.0504464 528 1 528 139656 49205464
177	8140847 1740 73 79574 0.09995410364 38.0520128 76 0 20 418 5358
179	8142587 114807 562 362398 1.0000672 182.529623060175 3657 1 3657 6688653 16309165565
180	8257394 498 31734 344531 15.073430686099 173.072019426296 17 1 17 153 1785
181	8257892 122112 562 362398 1.0000672 182.529623060175 3657 64 283252 573247412 1.1401781392261e+14
182	8380004 529 31734 344531 15.073430686099 173.072019426296 17 108 1492 12808 12961384
186	8380533 498 31734 344531 15.073430686099 173.072019426296 17 1 17 153 1785
191	8381031 1632 79 163203 0.118605855963 76.0504464 70 0 21 455 6195
193	8382663 116072 563 362451 1.0000672 182.552156618255 3693 1 3693 6820971 16795504259
194	8498735 281 79854 316305 38.115034564023 159.071091606672 10 1 10 55 385
195	8499016 123153 563 362451 1.0000672 182.552156618255 3693 64 259470 497457782 87869562055044
196	8622169 300 79854 316305 38.115034564023 159.071091606672 10 130 822 4718 2821436
200	8622469 281 79854 316305 38.115034564023 159.071091606672 10 1 10 55 385
205	8622750 214718 827 362420 1.0100672 182.539625060175 7348 0 466 284744 40609864
206	8837468 1969 879 108398 1.0102036 50.562954028655 80 0 16 316 3076
208	8839437 2239958 0 362440 0 182.54275420695 77766 0 7 202370 764086
209	11079395 666250 0 362434 0 182.54266420695 23138 0 2 22650 44814
210	11745645 113 42338 109823 19.062477839028 51.063396293764 4 0 0 0 0
211	11745758 498 31665 344455 15.063430686099 173.062019426296 17 1 17 153 1785
212	11746256 114822 820 362418 1.0100672 182.539623060175 3657 1 3657 6688653 16309165565
213	11861078 529 31665 344455 15.063430686099 173.062019426296 17 108 1492 12808 12961384
214	11861607 122127 820 362418 1.0100672 182.539623060175 3657 64 283252 573247412 1.1401781392261e+14
218	11983734 114822 820 362418 1.0100672 182.539623060175 3657 1 3657 6688653 16309165565
223	12098556 216600 828 362462 1.0100672 182.562158618255 7406 0 466 260292 25934280
224	12315156 3723 880 163331 1.0102036 76.085885127267 144 0 18 438 4396
226	12318879 2349502 0 362487 0 182.562923163708 81230 0 7 213822 805374
227	14668381 698432 0 362482 0 182.562793163708 24190 0 2 23978 47746
228	15366813 58 98760 351987 47.062935715688 177.061120366622 2 0 0 0 0
229	15366871 281 79817 316267 38.105034564023 159.061091606672 10 1 10 55 385
230	15367152 116086 821 362460 1.0100672 182.562156618255 3693 1 3693 6820971 16795504259
231	15483238 300 79817 316267 38.105034564023 159.061091606672 10 130 822 4718 2821436
232	15483538 123167 821 362460 1.0100672 182.562156618255 3693 64 259470 497457782 87869562055044
236	15606705 116086 821 362460 1.0100672 182.562156618255 3693 1 3693 6820971 16795504259
241	15722791 10 0 0 0 0 1 1 1 1 1
242	15722801 2368 19043 361379 10.0205648 182.0201936 102 0 1 51 51
244	15725169 14476 564 361383 1.0000672 182.02032 573 1 573 164451 62875099
245	15739645 3085 1464 361444 1.0200672 182.0602608 117 1 117 6903 540735
246	15742730 15947 564 361383 1.0000672 182.02032 573 64 153702 49179498 5498344159300
247	15758677 3349 1464 361444 1.0200672 182.0602608 117 64 18118 1016242 12437926460
251	15762026 3085 1464 361444 1.0200672 182.0602608 117 1 117 6903 540735
258	15765111 3175 565 344618 1.0000672 173.101694353175 119 1 119 7140 568820
259	15768286 14597 1466 361370 1.0200672 182.0201264 576 1 576 166176 63866976
260	15782883 3441 565 344618 1.0000672 173.101694353175 119 64 18246 1021764 12512725704
261	15786324 16069 1466 361370 1.0200672 182.0201264 576 64 153894 49210446 5502918495484
265	15802393 14597 1466 361370 1.0200672 182.0201264 576 1 576 166176 63866976
268	15816990 96 14984 300285 8.0200768 151.0200768 4 1 4 10 30
269	15817086 88 14985 300286 8.02008 151.02008 4 1 4 10 30
270	15817174 75 137 137 0.233447027066 0.233447027066 3 1 1 3 3
271	15817249 50 92 3669 0.156140310969 2.528305054092 2 1 1 2 2
275	15817299 56 33269 81184 15.392059751358 38.393001003932 2 2 2 4 8
280	15817355 56 32668 80590 15.248348337848 38.249998880307 2 1 1 2 2
281	15817411 56 32701 80622 15.249511323513 38.250741930094 2 1 1 2 2
284	15817467 50 203 203 0.293585502868 0.293585502868 2 1 1 2 2
288	15817517 111 31890 80749 15.113798686099 38.28093476506 4 1 1 4 4
293	15817628 56 32450 80406 15.216509566518 38.218239980733 2 1 1 2 2
294	15817684 55 32463 80419 15.217512552183 38.21918303052 2 1 1 2 2
297	15817739 157 196 77216 0.289443216007 37.061104564668 6 1 1 6 6
298	15817896 56 31632 79798 15.062980244718 38.104550490594 2 1 1 2 2
299	15817952 584 32653 346770 15.24807339047 174.24807339047 21 1 1 21 21
302	15818536 56 32223 80170 15.185281346413 38.187171728567 2 1 1 2 2
303	15818592 56 33433 81347 15.452796434923 38.453824119596 2 1 1 2 2
304	15818648 112 32224 80173 15.185281346413 38.187171728567 4 1 1 4 4
305	15818760 112 32225 80174 15.185281346413 38.187171728567 4 1 1 4 4
308	15818872 112 32605 80976 15.247264295714 38.331051238486 4 1 1 4 4
309	15818984 110 32652 80908 15.24807339047 38.311384397364 4 1 1 4 4
310	15819094 51 259 4012 0.419663425534 2.746018912556 2 1 1 2 2
323	15819145 75 150 150 0.234158752695 0.234158752695 3 1 1 3 3
324	15819220 50 125 125 0.216189795476 0.216189795476 2 1 1 2 2
