file 16815869 1426766200                                        
version 2
run MCoA_ALL-0-20150319-12:56:34-22823
attr configname MCoA_ALL
attr datetime 20150319-12:56:34
attr experiment MCoA_ALL
attr inifile VoIPMCoACN.ini
attr iterationvars ""
attr iterationvars2 $repetition=0
attr measurement ""
attr network VoIPMCoAMulti
attr processid 22823
attr repetition 0
attr replication #0
attr resultdir results
attr runnumber 0
attr seedset 0

vector 0  VoIPMCoAMulti.Ra.networkLayer.ipv6  IPv6Active_Event  ETV
vector 51  VoIPMCoAMulti.CN[0].networkLayer.ipv6  IPv6Active_Event  ETV
vector 76  VoIPMCoAMulti.HA.networkLayer.ipv6  IPv6Active_Event  ETV
vector 133  VoIPMCoAMulti.MN[0].networkLayer.ipv6  IPv6Active_Event  ETV
vector 156  VoIPMCoAMulti.MN[1].networkLayer.ipv6  IPv6Active_Event  ETV
vector 162  VoIPMCoAMulti.R1.networkLayer.ipv6  IPv6Active_Event  ETV
vector 241  VoIPMCoAMulti.Rb.networkLayer.ipv6  IPv6Active_Event  ETV
vector 109  VoIPMCoAMulti.AP_HA.wlan.mac  RadioState  ETV
attr enum  "IDLE=0, RECV=1, SLEEP=3, TRANSMIT=2"
attr enumname  RadioState
vector 108  VoIPMCoAMulti.AP_HA.wlan.mac  State  ETV
attr enum  "BACKOFF=3, DEFER=1, IDLE=0, RECEIVE=8, WAITACK=4, WAITBROADCAST=5, WAITCTS=6, WAITDIFS=2, WAITSIFS=7"
attr enumname  Ieee80211Mac
vector 137  VoIPMCoAMulti.MN[0].wlan[0].mac  RadioState  ETV
attr enum  "IDLE=0, RECV=1, SLEEP=3, TRANSMIT=2"
attr enumname  RadioState
vector 136  VoIPMCoAMulti.MN[0].wlan[0].mac  State  ETV
attr enum  "BACKOFF=3, DEFER=1, IDLE=0, RECEIVE=8, WAITACK=4, WAITBROADCAST=5, WAITCTS=6, WAITDIFS=2, WAITSIFS=7"
attr enumname  Ieee80211Mac
vector 142  VoIPMCoAMulti.MN[0].wlan[1].mac  RadioState  ETV
attr enum  "IDLE=0, RECV=1, SLEEP=3, TRANSMIT=2"
attr enumname  RadioState
vector 141  VoIPMCoAMulti.MN[0].wlan[1].mac  State  ETV
attr enum  "BACKOFF=3, DEFER=1, IDLE=0, RECEIVE=8, WAITACK=4, WAITBROADCAST=5, WAITCTS=6, WAITDIFS=2, WAITSIFS=7"
attr enumname  Ieee80211Mac
vector 147  VoIPMCoAMulti.MN[0].wlan[2].mac  RadioState  ETV
attr enum  "IDLE=0, RECV=1, SLEEP=3, TRANSMIT=2"
attr enumname  RadioState
vector 146  VoIPMCoAMulti.MN[0].wlan[2].mac  State  ETV
attr enum  "BACKOFF=3, DEFER=1, IDLE=0, RECEIVE=8, WAITACK=4, WAITBROADCAST=5, WAITCTS=6, WAITDIFS=2, WAITSIFS=7"
attr enumname  Ieee80211Mac
vector 160  VoIPMCoAMulti.MN[1].wlan[0].mac  RadioState  ETV
attr enum  "IDLE=0, RECV=1, SLEEP=3, TRANSMIT=2"
attr enumname  RadioState
vector 159  VoIPMCoAMulti.MN[1].wlan[0].mac  State  ETV
attr enum  "BACKOFF=3, DEFER=1, IDLE=0, RECEIVE=8, WAITACK=4, WAITBROADCAST=5, WAITCTS=6, WAITDIFS=2, WAITSIFS=7"
attr enumname  Ieee80211Mac
vector 209  VoIPMCoAMulti.AP_1.wlan.mac  RadioState  ETV
attr enum  "IDLE=0, RECV=1, SLEEP=3, TRANSMIT=2"
attr enumname  RadioState
vector 208  VoIPMCoAMulti.AP_1.wlan.mac  State  ETV
attr enum  "BACKOFF=3, DEFER=1, IDLE=0, RECEIVE=8, WAITACK=4, WAITBROADCAST=5, WAITCTS=6, WAITDIFS=2, WAITSIFS=7"
attr enumname  Ieee80211Mac
vector 227  VoIPMCoAMulti.AP_2.wlan.mac  RadioState  ETV
attr enum  "IDLE=0, RECV=1, SLEEP=3, TRANSMIT=2"
attr enumname  RadioState
vector 226  VoIPMCoAMulti.AP_2.wlan.mac  State  ETV
attr enum  "BACKOFF=3, DEFER=1, IDLE=0, RECEIVE=8, WAITACK=4, WAITBROADCAST=5, WAITCTS=6, WAITDIFS=2, WAITSIFS=7"
attr enumname  Ieee80211Mac
vector 177  VoIPMCoAMulti.R1.eth[1].queue  "queue length"  ETV
vector 91  VoIPMCoAMulti.HA.eth[1].queue  "queue length"  ETV
vector 191  VoIPMCoAMulti.R1.eth[2].queue  "queue length"  ETV
vector 271  VoIPMCoAMulti.CN[0].networkLayer.neighbourDiscovery  "Starting DAD"  ETV
vector 324  VoIPMCoAMulti.Rb.networkLayer.neighbourDiscovery  "Starting DAD"  ETV
vector 270  VoIPMCoAMulti.Ra.networkLayer.neighbourDiscovery  "Starting DAD"  ETV
vector 323  VoIPMCoAMulti.R1.networkLayer.neighbourDiscovery  "Starting DAD"  ETV
vector 297  VoIPMCoAMulti.MN[0].networkLayer.neighbourDiscovery  "Starting DAD"  ETV
vector 284  VoIPMCoAMulti.HA.networkLayer.neighbourDiscovery  "Starting DAD"  ETV
vector 310  VoIPMCoAMulti.MN[1].networkLayer.neighbourDiscovery  "Starting DAD"  ETV
vector 3  VoIPMCoAMulti.Ra.eth[0].mac  framesSent  ETV
vector 5  VoIPMCoAMulti.Ra.eth[0].mac  bytesSent  ETV
vector 17  VoIPMCoAMulti.Ra.eth[1].mac  framesSent  ETV
vector 19  VoIPMCoAMulti.Ra.eth[1].mac  bytesSent  ETV
vector 31  VoIPMCoAMulti.Ra.eth[2].mac  framesSent  ETV
vector 33  VoIPMCoAMulti.Ra.eth[2].mac  bytesSent  ETV
vector 54  VoIPMCoAMulti.CN[0].eth[0].mac  framesSent  ETV
vector 56  VoIPMCoAMulti.CN[0].eth[0].mac  bytesSent  ETV
vector 79  VoIPMCoAMulti.HA.eth[0].mac  framesSent  ETV
vector 81  VoIPMCoAMulti.HA.eth[0].mac  bytesSent  ETV
vector 93  VoIPMCoAMulti.HA.eth[1].mac  framesSent  ETV
vector 95  VoIPMCoAMulti.HA.eth[1].mac  bytesSent  ETV
vector 165  VoIPMCoAMulti.R1.eth[0].mac  framesSent  ETV
vector 167  VoIPMCoAMulti.R1.eth[0].mac  bytesSent  ETV
vector 179  VoIPMCoAMulti.R1.eth[1].mac  framesSent  ETV
vector 181  VoIPMCoAMulti.R1.eth[1].mac  bytesSent  ETV
vector 193  VoIPMCoAMulti.R1.eth[2].mac  framesSent  ETV
vector 195  VoIPMCoAMulti.R1.eth[2].mac  bytesSent  ETV
vector 244  VoIPMCoAMulti.Rb.eth[0].mac  framesSent  ETV
vector 246  VoIPMCoAMulti.Rb.eth[0].mac  bytesSent  ETV
vector 258  VoIPMCoAMulti.Rb.eth[1].mac  framesSent  ETV
vector 260  VoIPMCoAMulti.Rb.eth[1].mac  bytesSent  ETV
vector 80  VoIPMCoAMulti.HA.eth[0].mac  framesReceivedOK  ETV
vector 82  VoIPMCoAMulti.HA.eth[0].mac  bytesReceivedOK  ETV
vector 86  VoIPMCoAMulti.HA.eth[0].mac  framesPassedToHL  ETV
vector 166  VoIPMCoAMulti.R1.eth[0].mac  framesReceivedOK  ETV
vector 168  VoIPMCoAMulti.R1.eth[0].mac  bytesReceivedOK  ETV
vector 172  VoIPMCoAMulti.R1.eth[0].mac  framesPassedToHL  ETV
vector 4  VoIPMCoAMulti.Ra.eth[0].mac  framesReceivedOK  ETV
vector 6  VoIPMCoAMulti.Ra.eth[0].mac  bytesReceivedOK  ETV
vector 10  VoIPMCoAMulti.Ra.eth[0].mac  framesPassedToHL  ETV
vector 112  VoIPMCoAMulti.AP_HA.eth[0]  framesReceivedOK  ETV
vector 114  VoIPMCoAMulti.AP_HA.eth[0]  bytesReceivedOK  ETV
vector 118  VoIPMCoAMulti.AP_HA.eth[0]  framesPassedToHL  ETV
vector 18  VoIPMCoAMulti.Ra.eth[1].mac  framesReceivedOK  ETV
vector 20  VoIPMCoAMulti.Ra.eth[1].mac  bytesReceivedOK  ETV
vector 24  VoIPMCoAMulti.Ra.eth[1].mac  framesPassedToHL  ETV
vector 212  VoIPMCoAMulti.AP_1.eth[0]  framesReceivedOK  ETV
vector 214  VoIPMCoAMulti.AP_1.eth[0]  bytesReceivedOK  ETV
vector 218  VoIPMCoAMulti.AP_1.eth[0]  framesPassedToHL  ETV
vector 230  VoIPMCoAMulti.AP_2.eth[0]  framesReceivedOK  ETV
vector 232  VoIPMCoAMulti.AP_2.eth[0]  bytesReceivedOK  ETV
vector 236  VoIPMCoAMulti.AP_2.eth[0]  framesPassedToHL  ETV
vector 105  VoIPMCoAMulti.AP_HA.relayUnit  "buffer level"  ETV
vector 205  VoIPMCoAMulti.AP_1.relayUnit  "buffer level"  ETV
vector 223  VoIPMCoAMulti.AP_2.relayUnit  "buffer level"  ETV
vector 106  VoIPMCoAMulti.AP_HA.wlan.mgmt  "queue length"  ETV
vector 206  VoIPMCoAMulti.AP_1.wlan.mgmt  "queue length"  ETV
vector 224  VoIPMCoAMulti.AP_2.wlan.mgmt  "queue length"  ETV
vector 245  VoIPMCoAMulti.Rb.eth[0].mac  framesReceivedOK  ETV
vector 247  VoIPMCoAMulti.Rb.eth[0].mac  bytesReceivedOK  ETV
vector 251  VoIPMCoAMulti.Rb.eth[0].mac  framesPassedToHL  ETV
vector 32  VoIPMCoAMulti.Ra.eth[2].mac  framesReceivedOK  ETV
vector 34  VoIPMCoAMulti.Ra.eth[2].mac  bytesReceivedOK  ETV
vector 38  VoIPMCoAMulti.Ra.eth[2].mac  framesPassedToHL  ETV
vector 259  VoIPMCoAMulti.Rb.eth[1].mac  framesReceivedOK  ETV
vector 261  VoIPMCoAMulti.Rb.eth[1].mac  bytesReceivedOK  ETV
vector 265  VoIPMCoAMulti.Rb.eth[1].mac  framesPassedToHL  ETV
vector 55  VoIPMCoAMulti.CN[0].eth[0].mac  framesReceivedOK  ETV
vector 57  VoIPMCoAMulti.CN[0].eth[0].mac  bytesReceivedOK  ETV
vector 61  VoIPMCoAMulti.CN[0].eth[0].mac  framesPassedToHL  ETV
vector 161  VoIPMCoAMulti.MN[1].wlan[0].radio  "MAC loss rate"  ETV
vector 138  VoIPMCoAMulti.MN[0].wlan[0].radio  "MAC loss rate"  ETV
vector 111  VoIPMCoAMulti.AP_HA.eth[0]  framesSent  ETV
vector 113  VoIPMCoAMulti.AP_HA.eth[0]  bytesSent  ETV
vector 94  VoIPMCoAMulti.HA.eth[1].mac  framesReceivedOK  ETV
vector 96  VoIPMCoAMulti.HA.eth[1].mac  bytesReceivedOK  ETV
vector 100  VoIPMCoAMulti.HA.eth[1].mac  framesPassedToHL  ETV
vector 77  VoIPMCoAMulti.HA.eth[0].queue  "queue length"  ETV
vector 29  VoIPMCoAMulti.Ra.eth[2].queue  "queue length"  ETV
vector 256  VoIPMCoAMulti.Rb.eth[1].queue  "queue length"  ETV
vector 52  VoIPMCoAMulti.CN[0].eth[0].queue  "queue length"  ETV
vector 242  VoIPMCoAMulti.Rb.eth[0].queue  "queue length"  ETV
vector 1  VoIPMCoAMulti.Ra.eth[0].queue  "queue length"  ETV
vector 298  VoIPMCoAMulti.MN[0].networkLayer.xMobileIPv6  "BU to HA"  ETV
vector 211  VoIPMCoAMulti.AP_1.eth[0]  framesSent  ETV
vector 213  VoIPMCoAMulti.AP_1.eth[0]  bytesSent  ETV
vector 180  VoIPMCoAMulti.R1.eth[1].mac  framesReceivedOK  ETV
vector 182  VoIPMCoAMulti.R1.eth[1].mac  bytesReceivedOK  ETV
vector 186  VoIPMCoAMulti.R1.eth[1].mac  framesPassedToHL  ETV
vector 288  VoIPMCoAMulti.HA.networkLayer.xMobileIPv6  "BA to MN"  ETV
vector 143  VoIPMCoAMulti.MN[0].wlan[1].radio  "MAC loss rate"  ETV
vector 302  VoIPMCoAMulti.MN[0].networkLayer.xMobileIPv6  "BA from HA"  ETV
vector 304  VoIPMCoAMulti.MN[0].networkLayer.xMobileIPv6  "HoTI to CN"  ETV
vector 305  VoIPMCoAMulti.MN[0].networkLayer.xMobileIPv6  "CoTI to CN"  ETV
vector 139  VoIPMCoAMulti.MN[0].wlan[1].mgmt  "queue length"  ETV
vector 293  VoIPMCoAMulti.HA.networkLayer.xMobileIPv6  "HoT to MN"  ETV
vector 294  VoIPMCoAMulti.HA.networkLayer.xMobileIPv6  "CoT to MN"  ETV
vector 308  VoIPMCoAMulti.MN[0].networkLayer.xMobileIPv6  "HoT from CN"  ETV
vector 309  VoIPMCoAMulti.MN[0].networkLayer.xMobileIPv6  "CoT from CN"  ETV
vector 299  VoIPMCoAMulti.MN[0].networkLayer.xMobileIPv6  "BU to CN"  ETV
vector 280  VoIPMCoAMulti.CN[0].networkLayer.xMobileIPv6  "HoT to MN"  ETV
vector 281  VoIPMCoAMulti.CN[0].networkLayer.xMobileIPv6  "CoT to MN"  ETV
vector 275  VoIPMCoAMulti.CN[0].networkLayer.xMobileIPv6  "BA to MN"  ETV
vector 303  VoIPMCoAMulti.MN[0].networkLayer.xMobileIPv6  "BA from CN"  ETV
vector 229  VoIPMCoAMulti.AP_2.eth[0]  framesSent  ETV
vector 231  VoIPMCoAMulti.AP_2.eth[0]  bytesSent  ETV
vector 194  VoIPMCoAMulti.R1.eth[2].mac  framesReceivedOK  ETV
vector 196  VoIPMCoAMulti.R1.eth[2].mac  bytesReceivedOK  ETV
vector 200  VoIPMCoAMulti.R1.eth[2].mac  framesPassedToHL  ETV
vector 144  VoIPMCoAMulti.MN[0].wlan[2].mgmt  "queue length"  ETV
vector 148  VoIPMCoAMulti.MN[0].wlan[2].radio  "MAC loss rate"  ETV
vector 228  VoIPMCoAMulti.AP_2.wlan.radio  "MAC loss rate"  ETV
vector 210  VoIPMCoAMulti.AP_1.wlan.radio  "MAC loss rate"  ETV
0	10457 8 0 0 0 0 1 1 1 1 1
1	10465 52 18253 18257 10.261443140874 10.261511940874 2 0 1 1 1
3	10517 1159 540 319083 1.0000672 173.52815709826 43 1 43 946 27434
4	11676 1159 802 319170 1.0100672 173.54831389826 43 1 43 946 27434
5	12835 1243 540 319083 1.0000672 173.52815709826 43 64 4696 99962 320320020
6	14078 1243 802 319170 1.0100672 173.54831389826 43 64 5526 114304 428244544
10	15321 1202 802 319170 1.0100672 173.54831389826 43 1 43 946 27434
17	16523 1202 541 319177 1.0000672 173.54847069826 43 1 43 946 27434
18	17725 1202 804 319076 1.0100672 173.52803229826 43 1 43 946 27434
19	18927 1287 541 319177 1.0000672 173.54847069826 43 64 5664 119520 459760360
20	20214 1286 804 319076 1.0100672 173.52803229826 43 64 4886 105992 355257392
24	21500 1202 804 319076 1.0100672 173.52803229826 43 1 43 946 27434
29	22702 54 17779 17783 10.080695940874 10.080764740874 2 0 1 1 1
31	22756 291 542 68486 1.0000672 38.398258005681 11 1 11 66 506
32	23047 292 1450 68686 1.0200672 38.478629205681 11 1 11 66 506
33	23339 310 542 68486 1.0000672 38.398258005681 11 64 982 5102 3290036
34	23649 311 1450 68686 1.0200672 38.478629205681 11 64 930 4972 3078128
38	23960 292 1450 68686 1.0200672 38.478629205681 11 1 11 66 506
51	24252 9 0 0 0 0 1 1 1 1 1
52	24261 54 17994 17998 10.161036740874 10.161105540874 2 0 1 1 1
54	24315 368 543 68587 1.0000672 38.438510805681 14 1 14 105 1015
55	24683 344 1452 68577 1.0200672 38.438392405681 13 1 13 91 819
56	25027 391 543 68587 1.0000672 38.438510805681 14 64 1122 7572 5579824
57	25418 366 1452 68577 1.0200672 38.438392405681 13 64 1110 6828 4946600
61	25784 344 1452 68577 1.0200672 38.438392405681 13 1 13 91 819
76	26128 37 0 60918 0 35 3 1 2 4 6
77	26165 222 17641 268705 10.030492740874 146.538166825873 8 0 1 4 4
79	26387 1202 544 319143 1.0000672 173.53831389826 43 1 43 946 27434
80	27589 1202 800 319134 1.0100672 173.53815709826 43 1 43 946 27434
81	28791 1286 544 319143 1.0000672 173.53831389826 43 64 5526 114304 428244544
82	30077 1286 800 319134 1.0100672 173.53815709826 43 64 4696 99962 320320020
86	31363 1202 800 319134 1.0100672 173.53815709826 43 1 43 946 27434
91	32565 832 71 764 0.115677423169 1.0012768 38 0 19 361 4579
93	33397 120474 545 368608 1.0000672 199.941048731806 3921 1 3921 7689081 20101820761
94	153871 157 8530 28495 5.111241259032 15.010346211736 6 1 6 21 91
95	154028 127689 545 368608 1.0000672 199.941048731806 3921 64 250946 492108604 82339020530936
96	281717 167 8530 28495 5.111241259032 15.010346211736 6 40 256 896 167552
100	281884 163 8530 28495 5.111241259032 15.010346211736 6 1 6 21 91
105	282047 231752 810 368650 1.0100672 199.951050731806 7854 0 66 251202 16071684
106	513799 846 863 1507 1.0102036 1.022153927258 36 0 16 288 3114
108	514645 2417616 0 368732 0 199.985073900997 83192 0 7 214292 810276
109	2932261 696284 0 368724 0 199.985023900997 23970 0 2 23896 47720
111	3628545 163 8491 28437 5.101241259032 15.000346211736 6 1 6 21 91
112	3628708 124405 803 368648 1.0100672 199.951048731806 3921 1 3921 7689081 20101820761
113	3753113 173 8491 28437 5.101241259032 15.000346211736 6 40 256 896 167552
114	3753286 131620 803 368648 1.0100672 199.951048731806 3921 64 250946 492108604 82339020530936
118	3884906 124405 803 368648 1.0100672 199.951048731806 3921 1 3921 7689081 20101820761
133	4009311 10 0 0 0 0 1 1 1 1 1
136	4009321 507268 0 368726 0 199.985024326484 17532 0 7 22226 84170
137	4516589 244830 0 368725 0 199.985024326484 8504 0 2 5480 7940
138	4761419 859 8118 368034 4.911634841796 199.585024325707 30 0 0 0 0
139	4762278 224 26582 26726 14.507503015193 14.512180040495 8 0 4 16 44
141	4762502 757012 0 368390 0 199.793006130976 26112 0 7 13176 50432
142	5519514 456550 0 368388 0 199.792936130976 15756 0 2 8596 10036
143	5976064 2061 26332 343090 14.445731640297 185.942665020244 71 0 0 0 0
144	5978125 1009 67172 242726 38.22935013396 133.231057175171 36 0 6 60 182
146	5979134 725624 0 368496 0 199.863277021604 24812 0 7 16910 64906
147	6704758 423386 0 368494 0 199.862927021604 14448 0 2 8152 10008
148	7128144 1822 67256 290057 38.231817688079 157.69073896356 62 0 0 0 0
156	7129966 10 0 0 0 0 1 1 1 1 1
159	7129976 1064312 0 368729 0 199.985024332493 36608 0 7 356 1400
160	8194288 707316 0 368728 0 199.985024332493 24324 0 2 12178 12214
161	8901604 3523 6246 367393 3.976472286066 199.228345683805 121 0 0.02 0.04 0.0008
162	8905127 70 0 77395 0 45 5 1 2 7 11
165	8905197 1245 546 319057 1.0000672 173.51803229826 43 1 43 946 27434
166	8906442 1245 801 319186 1.0100672 173.55847069826 43 1 43 946 27434
167	8907687 1329 546 319057 1.0000672 173.51803229826 43 64 4886 105992 355257392
168	8909016 1330 801 319186 1.0100672 173.55847069826 43 64 5664 119520 459760360
172	8910346 1245 801 319186 1.0100672 173.55847069826 43 1 43 946 27434
177	8911591 912 68 777 0.09995410364 1.001344 40 0 20 400 5340
179	8912503 121269 547 368685 1.0000672 199.965386908187 3818 1 3818 7290471 18559109009
180	9033772 841 26200 319059 14.395652289797 173.518810209849 29 1 29 435 8555
181	9034613 128297 547 368685 1.0000672 199.965386908187 3818 64 245690 470760514 77170223779244
182	9162910 896 26200 319059 14.395652289797 173.518810209849 29 108 2200 33826 51265388
186	9163806 841 26200 319059 14.395652289797 173.518810209849 29 1 29 435 8555
191	9164647 960 74 786 0.118605855963 1.0014112 42 0 21 441 6181
193	9165607 121634 548 368692 1.0000672 199.966967125102 3831 1 3831 7340196 18749307316
194	9287241 1138 66897 252378 38.157664177463 138.262248647097 39 1 39 780 20540
195	9288379 128701 548 368692 1.0000672 199.966967125102 3831 64 248198 477366544 79196838900792
196	9417080 1214 66897 252378 38.157664177463 138.262248647097 39 130 3046 62944 132057608
200	9418294 1138 66897 252378 38.157664177463 138.262248647097 39 1 39 780 20540
205	9419432 227371 812 368696 1.0100672 199.975388908187 7694 0 176 247890 16094812
206	9646803 892 864 1435 1.0102036 1.019769745439 38 0 16 295 3055
208	9647695 2377966 0 368704 0 199.975734726368 82280 0 7 211986 801910
209	12025661 689536 0 368702 0 199.975684726368 23846 0 2 23700 47256
210	12715197 29 140194 140194 77.529872018802 77.529872018802 1 0 0 0 0
211	12715226 841 26163 319016 14.385652289797 173.508810209849 29 1 29 435 8555
212	12716067 121279 805 368694 1.0100672 199.975386908187 3818 1 3818 7290471 18559109009
213	12837346 896 26163 319016 14.385652289797 173.508810209849 29 108 2200 33826 51265388
214	12838242 128307 805 368694 1.0100672 199.975386908187 3818 64 245690 470760514 77170223779244
218	12966549 121279 805 368694 1.0100672 199.975386908187 3818 1 3818 7290471 18559109009
223	13087828 228638 813 368708 1.0100672 199.976969125102 7740 0 176 251244 16615064
224	13316466 1053 865 77870 1.0102036 45.232042058765 44 0 18 358 4274
226	13317519 2413908 0 368716 0 199.977414943283 82986 0 7 214142 809898
227	15731427 702648 0 368714 0 199.977264943283 24166 0 2 23974 47754
228	16434075 28 78105 78105 45.254355095804 45.254355095804 1 0 0 0 0
229	16434103 1138 66877 252359 38.147664177463 138.252248647097 39 1 39 780 20540
230	16435241 121645 806 368706 1.0100672 199.976967125102 3831 1 3831 7340196 18749307316
231	16556886 1214 66877 252359 38.147664177463 138.252248647097 39 130 3046 62944 132057608
232	16558100 128712 806 368706 1.0100672 199.976967125102 3831 64 248198 477366544 79196838900792
236	16686812 121645 806 368706 1.0100672 199.976967125102 3831 1 3831 7340196 18749307316
241	16808457 10 0 0 0 0 1 1 1 1 1
242	16808467 56 18140 18144 10.221239940874 10.221308740874 2 0 1 1 1
244	16808523 302 549 68647 1.0000672 38.458629205681 11 1 11 66 506
245	16808825 303 1449 68531 1.0200672 38.418258005681 11 1 11 66 506
246	16809128 321 549 68647 1.0000672 38.458629205681 11 64 930 4972 3078128
247	16809449 322 1449 68531 1.0200672 38.418258005681 11 64 982 5102 3290036
251	16809771 303 1449 68531 1.0200672 38.418258005681 11 1 11 66 506
256	16810074 56 17937 17941 10.140899140874 10.140967940874 2 0 1 1 1
258	16810130 356 550 68538 1.0000672 38.418392405681 13 1 13 91 819
259	16810486 383 1451 68640 1.0200672 38.458510805681 14 1 14 105 1015
260	16810869 378 550 68538 1.0000672 38.418392405681 13 64 1110 6828 4946600
261	16811247 406 1451 68640 1.0200672 38.458510805681 14 64 1122 7572 5579824
265	16811653 383 1451 68640 1.0200672 38.458510805681 14 1 14 105 1015
270	16812036 75 132 132 0.233447027066 0.233447027066 3 1 1 3 3
271	16812111 50 87 3639 0.156140310969 2.528305054092 2 1 1 2 2
275	16812161 56 27789 68580 14.715134280749 38.438392405681 2 2 2 4 8
280	16812217 56 27180 67968 14.572983082294 38.295370294364 2 1 1 2 2
281	16812273 56 27216 67995 14.573966111347 38.296053344151 2 1 1 2 2
284	16812329 50 198 198 0.293585502868 0.293585502868 2 1 1 2 2
288	16812379 112 26302 68096 14.436020289797 38.325923721361 4 1 1 4 4
293	16812491 56 26939 67698 14.540700769643 38.262887940245 2 1 1 2 2
294	16812547 56 26952 67711 14.542187253241 38.264154444577 2 1 1 2 2
297	16812603 157 191 64712 0.289443216007 37.102455819596 6 1 1 6 6
298	16812760 56 26144 66858 14.385201826709 38.147180104034 2 1 1 2 2
299	16812816 632 27169 363879 14.572748110117 197.294852854091 22 1 1 22 22
302	16813448 55 26567 67153 14.507503015193 38.22935013396 2 1 1 2 2
303	16813503 56 27953 68759 14.775870985966 38.499215521345 2 1 1 2 2
304	16813559 955 26568 363735 14.507503015193 197.22935013396 34 1 1 34 34
305	16814514 955 26569 363736 14.507503015193 197.22935013396 34 1 1 34 34
308	16815469 112 27145 68349 14.571455517428 38.376422649466 4 1 1 4 4
309	16815581 112 27168 68281 14.572748110117 38.356695808344 4 1 1 4 4
310	16815693 51 254 3982 0.419663425534 2.746018912556 2 1 1 2 2
323	16815744 75 145 145 0.234158752695 0.234158752695 3 1 1 3 3
324	16815819 50 120 120 0.216189795476 0.216189795476 2 1 1 2 2
