file 16842130 1426605708                                        
version 2
run MCoA_ALL-0-20150317-16:21:37-4271
attr configname MCoA_ALL
attr datetime 20150317-16:21:37
attr experiment MCoA_ALL
attr inifile VoIPMCoACN.ini
attr iterationvars ""
attr iterationvars2 $repetition=0
attr measurement ""
attr network VoIPMCoAMulti
attr processid 4271
attr repetition 0
attr replication #0
attr resultdir results
attr runnumber 0
attr seedset 0

vector 0  VoIPMCoAMulti.Ra.networkLayer.ipv6  IPv6Active_Event  ETV
vector 51  VoIPMCoAMulti.CN[0].networkLayer.ipv6  IPv6Active_Event  ETV
vector 76  VoIPMCoAMulti.HA.networkLayer.ipv6  IPv6Active_Event  ETV
vector 133  VoIPMCoAMulti.MN[0].networkLayer.ipv6  IPv6Active_Event  ETV
vector 156  VoIPMCoAMulti.MN[1].networkLayer.ipv6  IPv6Active_Event  ETV
vector 162  VoIPMCoAMulti.R1.networkLayer.ipv6  IPv6Active_Event  ETV
vector 241  VoIPMCoAMulti.Rb.networkLayer.ipv6  IPv6Active_Event  ETV
vector 109  VoIPMCoAMulti.AP_HA.wlan.mac  RadioState  ETV
attr enum  "IDLE=0, RECV=1, SLEEP=3, TRANSMIT=2"
attr enumname  RadioState
vector 108  VoIPMCoAMulti.AP_HA.wlan.mac  State  ETV
attr enum  "BACKOFF=3, DEFER=1, IDLE=0, RECEIVE=8, WAITACK=4, WAITBROADCAST=5, WAITCTS=6, WAITDIFS=2, WAITSIFS=7"
attr enumname  Ieee80211Mac
vector 137  VoIPMCoAMulti.MN[0].wlan[0].mac  RadioState  ETV
attr enum  "IDLE=0, RECV=1, SLEEP=3, TRANSMIT=2"
attr enumname  RadioState
vector 136  VoIPMCoAMulti.MN[0].wlan[0].mac  State  ETV
attr enum  "BACKOFF=3, DEFER=1, IDLE=0, RECEIVE=8, WAITACK=4, WAITBROADCAST=5, WAITCTS=6, WAITDIFS=2, WAITSIFS=7"
attr enumname  Ieee80211Mac
vector 142  VoIPMCoAMulti.MN[0].wlan[1].mac  RadioState  ETV
attr enum  "IDLE=0, RECV=1, SLEEP=3, TRANSMIT=2"
attr enumname  RadioState
vector 141  VoIPMCoAMulti.MN[0].wlan[1].mac  State  ETV
attr enum  "BACKOFF=3, DEFER=1, IDLE=0, RECEIVE=8, WAITACK=4, WAITBROADCAST=5, WAITCTS=6, WAITDIFS=2, WAITSIFS=7"
attr enumname  Ieee80211Mac
vector 147  VoIPMCoAMulti.MN[0].wlan[2].mac  RadioState  ETV
attr enum  "IDLE=0, RECV=1, SLEEP=3, TRANSMIT=2"
attr enumname  RadioState
vector 146  VoIPMCoAMulti.MN[0].wlan[2].mac  State  ETV
attr enum  "BACKOFF=3, DEFER=1, IDLE=0, RECEIVE=8, WAITACK=4, WAITBROADCAST=5, WAITCTS=6, WAITDIFS=2, WAITSIFS=7"
attr enumname  Ieee80211Mac
vector 160  VoIPMCoAMulti.MN[1].wlan[0].mac  RadioState  ETV
attr enum  "IDLE=0, RECV=1, SLEEP=3, TRANSMIT=2"
attr enumname  RadioState
vector 159  VoIPMCoAMulti.MN[1].wlan[0].mac  State  ETV
attr enum  "BACKOFF=3, DEFER=1, IDLE=0, RECEIVE=8, WAITACK=4, WAITBROADCAST=5, WAITCTS=6, WAITDIFS=2, WAITSIFS=7"
attr enumname  Ieee80211Mac
vector 209  VoIPMCoAMulti.AP_1.wlan.mac  RadioState  ETV
attr enum  "IDLE=0, RECV=1, SLEEP=3, TRANSMIT=2"
attr enumname  RadioState
vector 208  VoIPMCoAMulti.AP_1.wlan.mac  State  ETV
attr enum  "BACKOFF=3, DEFER=1, IDLE=0, RECEIVE=8, WAITACK=4, WAITBROADCAST=5, WAITCTS=6, WAITDIFS=2, WAITSIFS=7"
attr enumname  Ieee80211Mac
vector 227  VoIPMCoAMulti.AP_2.wlan.mac  RadioState  ETV
attr enum  "IDLE=0, RECV=1, SLEEP=3, TRANSMIT=2"
attr enumname  RadioState
vector 226  VoIPMCoAMulti.AP_2.wlan.mac  State  ETV
attr enum  "BACKOFF=3, DEFER=1, IDLE=0, RECEIVE=8, WAITACK=4, WAITBROADCAST=5, WAITCTS=6, WAITDIFS=2, WAITSIFS=7"
attr enumname  Ieee80211Mac
vector 43  VoIPMCoAMulti.CN[0].udpApp[0]  "MCOA VIDEO Packet Sent"  ETV
vector 177  VoIPMCoAMulti.R1.eth[1].queue  "queue length"  ETV
vector 91  VoIPMCoAMulti.HA.eth[1].queue  "queue length"  ETV
vector 191  VoIPMCoAMulti.R1.eth[2].queue  "queue length"  ETV
vector 271  VoIPMCoAMulti.CN[0].networkLayer.neighbourDiscovery  "Starting DAD"  ETV
vector 324  VoIPMCoAMulti.Rb.networkLayer.neighbourDiscovery  "Starting DAD"  ETV
vector 270  VoIPMCoAMulti.Ra.networkLayer.neighbourDiscovery  "Starting DAD"  ETV
vector 323  VoIPMCoAMulti.R1.networkLayer.neighbourDiscovery  "Starting DAD"  ETV
vector 297  VoIPMCoAMulti.MN[0].networkLayer.neighbourDiscovery  "Starting DAD"  ETV
vector 284  VoIPMCoAMulti.HA.networkLayer.neighbourDiscovery  "Starting DAD"  ETV
vector 310  VoIPMCoAMulti.MN[1].networkLayer.neighbourDiscovery  "Starting DAD"  ETV
vector 3  VoIPMCoAMulti.Ra.eth[0].mac  framesSent  ETV
vector 5  VoIPMCoAMulti.Ra.eth[0].mac  bytesSent  ETV
vector 17  VoIPMCoAMulti.Ra.eth[1].mac  framesSent  ETV
vector 19  VoIPMCoAMulti.Ra.eth[1].mac  bytesSent  ETV
vector 31  VoIPMCoAMulti.Ra.eth[2].mac  framesSent  ETV
vector 33  VoIPMCoAMulti.Ra.eth[2].mac  bytesSent  ETV
vector 54  VoIPMCoAMulti.CN[0].eth[0].mac  framesSent  ETV
vector 56  VoIPMCoAMulti.CN[0].eth[0].mac  bytesSent  ETV
vector 79  VoIPMCoAMulti.HA.eth[0].mac  framesSent  ETV
vector 81  VoIPMCoAMulti.HA.eth[0].mac  bytesSent  ETV
vector 93  VoIPMCoAMulti.HA.eth[1].mac  framesSent  ETV
vector 95  VoIPMCoAMulti.HA.eth[1].mac  bytesSent  ETV
vector 165  VoIPMCoAMulti.R1.eth[0].mac  framesSent  ETV
vector 167  VoIPMCoAMulti.R1.eth[0].mac  bytesSent  ETV
vector 179  VoIPMCoAMulti.R1.eth[1].mac  framesSent  ETV
vector 181  VoIPMCoAMulti.R1.eth[1].mac  bytesSent  ETV
vector 193  VoIPMCoAMulti.R1.eth[2].mac  framesSent  ETV
vector 195  VoIPMCoAMulti.R1.eth[2].mac  bytesSent  ETV
vector 244  VoIPMCoAMulti.Rb.eth[0].mac  framesSent  ETV
vector 246  VoIPMCoAMulti.Rb.eth[0].mac  bytesSent  ETV
vector 258  VoIPMCoAMulti.Rb.eth[1].mac  framesSent  ETV
vector 260  VoIPMCoAMulti.Rb.eth[1].mac  bytesSent  ETV
vector 80  VoIPMCoAMulti.HA.eth[0].mac  framesReceivedOK  ETV
vector 82  VoIPMCoAMulti.HA.eth[0].mac  bytesReceivedOK  ETV
vector 86  VoIPMCoAMulti.HA.eth[0].mac  framesPassedToHL  ETV
vector 166  VoIPMCoAMulti.R1.eth[0].mac  framesReceivedOK  ETV
vector 168  VoIPMCoAMulti.R1.eth[0].mac  bytesReceivedOK  ETV
vector 172  VoIPMCoAMulti.R1.eth[0].mac  framesPassedToHL  ETV
vector 4  VoIPMCoAMulti.Ra.eth[0].mac  framesReceivedOK  ETV
vector 6  VoIPMCoAMulti.Ra.eth[0].mac  bytesReceivedOK  ETV
vector 10  VoIPMCoAMulti.Ra.eth[0].mac  framesPassedToHL  ETV
vector 112  VoIPMCoAMulti.AP_HA.eth[0]  framesReceivedOK  ETV
vector 114  VoIPMCoAMulti.AP_HA.eth[0]  bytesReceivedOK  ETV
vector 118  VoIPMCoAMulti.AP_HA.eth[0]  framesPassedToHL  ETV
vector 18  VoIPMCoAMulti.Ra.eth[1].mac  framesReceivedOK  ETV
vector 20  VoIPMCoAMulti.Ra.eth[1].mac  bytesReceivedOK  ETV
vector 24  VoIPMCoAMulti.Ra.eth[1].mac  framesPassedToHL  ETV
vector 212  VoIPMCoAMulti.AP_1.eth[0]  framesReceivedOK  ETV
vector 214  VoIPMCoAMulti.AP_1.eth[0]  bytesReceivedOK  ETV
vector 218  VoIPMCoAMulti.AP_1.eth[0]  framesPassedToHL  ETV
vector 230  VoIPMCoAMulti.AP_2.eth[0]  framesReceivedOK  ETV
vector 232  VoIPMCoAMulti.AP_2.eth[0]  bytesReceivedOK  ETV
vector 236  VoIPMCoAMulti.AP_2.eth[0]  framesPassedToHL  ETV
vector 105  VoIPMCoAMulti.AP_HA.relayUnit  "buffer level"  ETV
vector 205  VoIPMCoAMulti.AP_1.relayUnit  "buffer level"  ETV
vector 223  VoIPMCoAMulti.AP_2.relayUnit  "buffer level"  ETV
vector 106  VoIPMCoAMulti.AP_HA.wlan.mgmt  "queue length"  ETV
vector 206  VoIPMCoAMulti.AP_1.wlan.mgmt  "queue length"  ETV
vector 224  VoIPMCoAMulti.AP_2.wlan.mgmt  "queue length"  ETV
vector 245  VoIPMCoAMulti.Rb.eth[0].mac  framesReceivedOK  ETV
vector 247  VoIPMCoAMulti.Rb.eth[0].mac  bytesReceivedOK  ETV
vector 251  VoIPMCoAMulti.Rb.eth[0].mac  framesPassedToHL  ETV
vector 32  VoIPMCoAMulti.Ra.eth[2].mac  framesReceivedOK  ETV
vector 34  VoIPMCoAMulti.Ra.eth[2].mac  bytesReceivedOK  ETV
vector 38  VoIPMCoAMulti.Ra.eth[2].mac  framesPassedToHL  ETV
vector 259  VoIPMCoAMulti.Rb.eth[1].mac  framesReceivedOK  ETV
vector 261  VoIPMCoAMulti.Rb.eth[1].mac  bytesReceivedOK  ETV
vector 265  VoIPMCoAMulti.Rb.eth[1].mac  framesPassedToHL  ETV
vector 55  VoIPMCoAMulti.CN[0].eth[0].mac  framesReceivedOK  ETV
vector 57  VoIPMCoAMulti.CN[0].eth[0].mac  bytesReceivedOK  ETV
vector 61  VoIPMCoAMulti.CN[0].eth[0].mac  framesPassedToHL  ETV
vector 161  VoIPMCoAMulti.MN[1].wlan[0].radio  "MAC loss rate"  ETV
vector 111  VoIPMCoAMulti.AP_HA.eth[0]  framesSent  ETV
vector 113  VoIPMCoAMulti.AP_HA.eth[0]  bytesSent  ETV
vector 94  VoIPMCoAMulti.HA.eth[1].mac  framesReceivedOK  ETV
vector 96  VoIPMCoAMulti.HA.eth[1].mac  bytesReceivedOK  ETV
vector 100  VoIPMCoAMulti.HA.eth[1].mac  framesPassedToHL  ETV
vector 138  VoIPMCoAMulti.MN[0].wlan[0].radio  "MAC loss rate"  ETV
vector 52  VoIPMCoAMulti.CN[0].eth[0].queue  "queue length"  ETV
vector 268  VoIPMCoAMulti.Rb.eth[1].mac  collisions  ETV
vector 269  VoIPMCoAMulti.Rb.eth[1].mac  backoffs  ETV
vector 64  VoIPMCoAMulti.CN[0].eth[0].mac  collisions  ETV
vector 110  VoIPMCoAMulti.AP_HA.wlan.radio  "MAC loss rate"  ETV
vector 298  VoIPMCoAMulti.MN[0].networkLayer.xMobileIPv6  "BU to HA"  ETV
vector 211  VoIPMCoAMulti.AP_1.eth[0]  framesSent  ETV
vector 213  VoIPMCoAMulti.AP_1.eth[0]  bytesSent  ETV
vector 180  VoIPMCoAMulti.R1.eth[1].mac  framesReceivedOK  ETV
vector 182  VoIPMCoAMulti.R1.eth[1].mac  bytesReceivedOK  ETV
vector 186  VoIPMCoAMulti.R1.eth[1].mac  framesPassedToHL  ETV
vector 288  VoIPMCoAMulti.HA.networkLayer.xMobileIPv6  "BA to MN"  ETV
vector 143  VoIPMCoAMulti.MN[0].wlan[1].radio  "MAC loss rate"  ETV
vector 302  VoIPMCoAMulti.MN[0].networkLayer.xMobileIPv6  "BA from HA"  ETV
vector 304  VoIPMCoAMulti.MN[0].networkLayer.xMobileIPv6  "HoTI to CN"  ETV
vector 305  VoIPMCoAMulti.MN[0].networkLayer.xMobileIPv6  "CoTI to CN"  ETV
vector 29  VoIPMCoAMulti.Ra.eth[2].queue  "queue length"  ETV
vector 256  VoIPMCoAMulti.Rb.eth[1].queue  "queue length"  ETV
vector 280  VoIPMCoAMulti.CN[0].networkLayer.xMobileIPv6  "HoT to MN"  ETV
vector 65  VoIPMCoAMulti.CN[0].eth[0].mac  backoffs  ETV
vector 77  VoIPMCoAMulti.HA.eth[0].queue  "queue length"  ETV
vector 15  VoIPMCoAMulti.Ra.eth[1].queue  "queue length"  ETV
vector 308  VoIPMCoAMulti.MN[0].networkLayer.xMobileIPv6  "HoT from CN"  ETV
vector 281  VoIPMCoAMulti.CN[0].networkLayer.xMobileIPv6  "CoT to MN"  ETV
vector 309  VoIPMCoAMulti.MN[0].networkLayer.xMobileIPv6  "CoT from CN"  ETV
vector 299  VoIPMCoAMulti.MN[0].networkLayer.xMobileIPv6  "BU to CN"  ETV
vector 275  VoIPMCoAMulti.CN[0].networkLayer.xMobileIPv6  "BA to MN"  ETV
vector 303  VoIPMCoAMulti.MN[0].networkLayer.xMobileIPv6  "BA from CN"  ETV
vector 210  VoIPMCoAMulti.AP_1.wlan.radio  "MAC loss rate"  ETV
vector 148  VoIPMCoAMulti.MN[0].wlan[2].radio  "MAC loss rate"  ETV
vector 229  VoIPMCoAMulti.AP_2.eth[0]  framesSent  ETV
vector 231  VoIPMCoAMulti.AP_2.eth[0]  bytesSent  ETV
vector 194  VoIPMCoAMulti.R1.eth[2].mac  framesReceivedOK  ETV
vector 196  VoIPMCoAMulti.R1.eth[2].mac  bytesReceivedOK  ETV
vector 200  VoIPMCoAMulti.R1.eth[2].mac  framesPassedToHL  ETV
vector 242  VoIPMCoAMulti.Rb.eth[0].queue  "queue length"  ETV
vector 228  VoIPMCoAMulti.AP_2.wlan.radio  "MAC loss rate"  ETV
0	10545 8 0 0 0 0 1 1 1 1 1
3	10553 1234 555 86788 1.0000672 43.469160947898 57 1 57 1653 63365
4	11787 378 817 86833 1.0100672 43.489228147898 17 1 17 153 1785
5	12165 1384 555 86788 1.0000672 43.469160947898 57 64 18772 590090 7881087572
6	13549 414 817 86833 1.0100672 43.489228147898 17 64 4132 33524 102263032
10	13963 395 817 86833 1.0100672 43.489228147898 17 1 17 153 1785
15	14358 135 29856 100970 14.5814144 49.5402736 6 0 1 3 3
17	14493 8348 556 115847 1.0000672 55.0404128 351 1 351 61776 14476176
18	22841 342 819 101114 1.0100672 49.560272 13 1 13 91 819
19	23183 9160 556 115847 1.0000672 55.0404128 351 64 113510 19866100 1513314603840
20	32343 366 819 101114 1.0100672 49.560272 13 64 1284 8458 7533892
24	32709 342 819 101114 1.0100672 49.560272 13 1 13 91 819
29	33051 54 29275 29279 14.436605111122 14.436697911122 2 0 1 1 1
31	33105 279 557 78641 1.0000672 38.693789520508 11 1 11 66 506
32	33384 9275 1465 115839 1.0200672 55.040344 389 1 389 75855 19697015
33	42659 299 557 78641 1.0000672 38.693789520508 11 64 1010 5450 3684180
34	42958 10217 1465 115839 1.0200672 55.040344 389 64 127876 25128522 2151641137668
38	53175 9275 1465 115839 1.0200672 55.040344 389 1 389 75855 19697015
43	62450 3294 2 115668 0 55 201 1 201 20301 2727101
51	65744 9 0 0 0 0 1 1 1 1 1
52	65753 10476 14921 115692 8 55.0002064 562 0 6 1053 3149
54	76229 9504 558 115696 1.0000672 55.0002752 398 1 398 79401 21094199
55	85733 333 1467 87000 1.0200672 43.5418272 13 1 13 91 819
56	86066 10466 558 115696 1.0000672 55.0002752 398 64 129662 25935098 2250645744012
57	96532 356 1467 87000 1.0200672 43.5418272 13 64 1106 7068 5305368
61	96888 333 1467 87000 1.0200672 43.5418272 13 1 13 91 819
64	97221 135 15001 86994 8.0400768 43.540992 6 1 6 21 91
65	97356 27 29573 29573 14.516937911122 14.516937911122 1 1 1 1 1
76	97383 37 0 69341 0 35 3 1 2 4 6
77	97420 216 29789 32431 14.5703408 15.551656 10 0 3 11 21
79	97636 395 559 86800 1.0000672 43.479228147898 17 1 17 153 1785
80	98031 1292 815 86791 1.0100672 43.479160947898 57 1 57 1653 63365
81	99323 431 559 86800 1.0000672 43.479228147898 17 64 4132 33524 102263032
82	99754 1442 815 86791 1.0100672 43.479160947898 57 64 18772 590090 7881087572
86	101196 1292 815 86791 1.0100672 43.479160947898 57 1 57 1653 63365
91	102488 932 76 6927 0.115677423169 4.132924239142 42 0 19 365 4585
93	103420 121089 560 378581 1.0000672 199.967876793659 3943 1 3943 7775596 20442041884
94	224509 75 6904 8646 4.132146639142 4.928084718207 3 1 3 6 14
95	224584 128579 560 378581 1.0000672 199.967876793659 3943 64 264832 544164194 96683672326532
96	353163 79 6904 8646 4.132146639142 4.928084718207 3 40 120 240 22400
100	353242 78 6904 8646 4.132146639142 4.928084718207 3 1 3 6 14
105	353320 232774 825 378586 1.0100672 199.977878793659 7892 0 466 264952 22762528
106	586094 898 878 6996 1.0102036 4.143388587376 38 0 16 289 3115
108	586992 2431018 0 378624 0 199.985193900997 83578 0 7 215696 815132
109	3018010 703120 0 378614 0 199.985023900997 24194 0 2 24046 47946
110	3721130 28 24592 24592 12.563428465628 12.563428465628 1 0 0 0 0
111	3721158 78 6863 8619 4.122146639142 4.918084718207 3 1 3 6 14
112	3721236 125043 818 378584 1.0100672 199.977876793659 3943 1 3943 7775596 20442041884
113	3846279 82 6863 8619 4.122146639142 4.918084718207 3 40 120 240 22400
114	3846361 132533 818 378584 1.0100672 199.977876793659 3943 64 264832 544164194 96683672326532
118	3978894 125043 818 378584 1.0100672 199.977876793659 3943 1 3943 7775596 20442041884
133	4103937 10 0 0 0 0 1 1 1 1 1
136	4103947 560950 0 378359 0 199.835445824413 19498 0 7 20796 80520
137	4664897 288108 0 378357 0 199.835295824413 10096 0 2 6246 8646
138	4953005 1076 8215 180684 4.735155690365 89.146488061387 38 0 0 0 0
141	4954081 717384 0 378650 0 199.993166131467 24752 0 7 17918 76190
142	5671465 415778 0 378648 0 199.992936131467 14380 0 2 8400 10824
143	6087243 1706 28969 358954 14.355229738944 189.342665012493 59 0 0 0 0
146	6088949 520306 0 378637 0 199.992167634117 17778 0 7 22704 87628
147	6609255 254924 0 378636 0 199.992167634117 8696 0 2 5646 8246
148	6864179 886 77041 377191 38.264708942597 199.194189909574 30 0 0 0 0
156	6865065 10 0 0 0 0 1 1 1 1 1
159	6865075 1065768 0 378616 0 199.985024332493 36646 0 7 350 1390
160	7930843 705656 0 378615 0 199.985024332493 24252 0 2 12142 12178
161	8636499 3528 6357 378439 3.976739013338 199.885024332493 121 0 0.02 0.04 0.0008
162	8640027 70 0 88906 0 45 5 1 2 7 11
165	8640097 355 561 101057 1.0000672 49.550272 13 1 13 91 819
166	8640452 8699 816 115887 1.0100672 55.0504128 351 1 351 61776 14476176
167	8649151 379 561 101057 1.0000672 49.550272 13 64 1284 8458 7533892
168	8649530 9511 816 115887 1.0100672 55.0504128 351 64 113510 19866100 1513314603840
172	8659041 8699 816 115887 1.0100672 55.0504128 351 1 351 61776 14476176
177	8667740 1161 73 71725 0.09995410364 36.051682254702 50 0 20 405 5345
179	8668901 125949 562 378550 1.0000672 199.951155999874 3993 1 3993 7974021 21229501909
180	8794850 225 28652 101389 14.263604531499 49.574342111637 8 1 8 36 204
181	8795075 133936 562 378550 1.0000672 199.951155999874 3993 64 305264 674824772 1.4388183697299e+14
182	8929011 241 28652 101389 14.263604531499 49.574342111637 8 108 570 2652 1079280
186	8929252 225 28652 101389 14.263604531499 49.574342111637 8 1 8 36 204
191	8929477 1013 79 102521 0.118605855963 50.052500650566 44 0 21 442 6182
193	8930490 124321 563 378607 1.0000672 199.981869373442 3921 1 3921 7689081 20101820761
194	9054811 168 77453 78581 38.458959347898 38.683520720508 6 1 6 21 91
195	9054979 131817 563 378607 1.0000672 199.981869373442 3921 64 268906 547368854 1.0016426309024e+14
196	9186796 180 77453 78581 38.458959347898 38.683520720508 6 130 496 1660 552816
200	9186976 168 77453 78581 38.458959347898 38.683520720508 6 1 6 21 91
205	9187144 234757 827 378554 1.0100672 199.961157999874 8002 0 506 305834 42698876
206	9421901 992 879 39441 1.0102036 18.56247786901 42 0 16 297 3057
208	9422893 2445408 0 378562 0 199.961543818055 84696 0 7 219994 830358
209	11868301 721406 0 378560 0 199.961453818055 24994 0 2 24552 48664
210	12589707 112 41707 113374 19.560838100121 54.062545605834 4 0 0 0 0
211	12589819 225 28606 101332 14.253604531499 49.564342111637 8 1 8 36 204
212	12590044 125960 820 378552 1.0100672 199.961155999874 3993 1 3993 7974021 21229501909
213	12716004 241 28606 101332 14.253604531499 49.564342111637 8 108 570 2652 1079280
214	12716245 133947 820 378552 1.0100672 199.961155999874 3993 64 305264 674824772 1.4388183697299e+14
218	12850192 125960 820 378552 1.0100672 199.961155999874 3993 1 3993 7974021 21229501909
223	12976152 231665 828 378628 1.0100672 199.991871373442 7854 0 466 269402 25534308
224	13207817 2439 880 114793 1.0102036 54.589833272719 96 0 18 396 4324
226	13210256 2474140 0 378642 0 199.992357191623 84986 0 7 221184 834576
227	15684396 723070 0 378635 0 199.992167191623 24850 0 2 24712 49288
228	16407466 28 99896 99896 49.062935776216 49.062935776216 1 0 0 0 0
229	16407494 168 77399 78556 38.448959347898 38.673520720508 6 1 6 21 91
230	16407662 124333 821 378626 1.0100672 199.991869373442 3921 1 3921 7689081 20101820761
231	16531995 180 77399 78556 38.448959347898 38.673520720508 6 130 496 1660 552816
232	16532175 131829 821 378626 1.0100672 199.991869373442 3921 64 268906 547368854 1.0016426309024e+14
236	16664004 124333 821 378626 1.0100672 199.991869373442 3921 1 3921 7689081 20101820761
241	16788337 10 0 0 0 0 1 1 1 1 1
242	16788347 45 77739 77743 38.5200688 38.520136 2 0 1 1 1
244	16788392 9663 564 115743 1.0000672 55.020344 389 1 389 75855 19697015
245	16798055 291 1464 78679 1.0200672 38.713789520508 11 1 11 66 506
246	16798346 10605 564 115743 1.0000672 55.020344 389 64 127876 25128522 2151641137668
247	16808951 311 1464 78679 1.0200672 38.713789520508 11 64 1010 5450 3684180
251	16809262 291 1464 78679 1.0200672 38.713789520508 11 1 11 66 506
256	16809553 56 29452 29456 14.496832311122 14.496925111122 2 0 1 1 1
258	16809609 374 565 86962 1.0000672 43.5218272 14 1 14 105 1015
259	16809983 9781 1466 115735 1.0200672 55.0202752 393 1 393 77421 20310109
260	16819764 398 565 86962 1.0000672 43.5218272 14 64 1202 8252 6724888
261	16820162 10728 1466 115735 1.0200672 55.0202752 393 64 128132 25270852 2167359243048
265	16830890 9781 1466 115735 1.0200672 55.0202752 393 1 393 77421 20310109
268	16840671 141 14984 86949 8.0200768 43.520992 6 1 6 21 91
269	16840812 110 14985 86950 8.02008 43.5209952 5 1 5 15 55
270	16840922 75 137 137 0.233447027066 0.233447027066 3 1 1 3 3
271	16840997 50 92 3669 0.156140310969 2.528305054092 2 1 1 2 2
275	16841047 56 32447 78692 15.558319538181 38.733923920508 2 2 2 4 8
280	16841103 56 29566 78222 14.516925111122 38.591686319645 2 1 1 2 2
281	16841159 56 31963 78233 15.436138280141 38.593152805519 2 1 1 2 2
284	16841215 50 203 203 0.293585502868 0.293585502868 2 1 1 2 2
288	16841265 56 28781 77511 14.303972531499 38.479228147898 2 1 1 2 2
297	16841321 157 196 73953 0.289443216007 37.051361250408 6 1 1 6 6
298	16841478 56 28587 77380 14.253154065302 38.448475286779 2 1 1 2 2
299	16841534 56 32132 78529 15.496780709161 38.672738665531 2 1 1 2 2
302	16841590 56 29043 77804 14.375455266216 38.530645276708 2 1 1 2 2
303	16841646 56 32754 78898 15.619056218661 38.794747026962 2 1 1 2 2
304	16841702 56 29044 77805 14.375455266216 38.530645276708 2 1 1 2 2
305	16841758 84 29045 77806 14.375455266216 38.530645276708 3 1 1 3 3
308	16841842 56 30037 78528 14.604007557107 38.672738665531 2 1 1 2 2
309	16841898 56 32131 78457 15.496780709161 38.653795260496 2 1 1 2 2
310	16841954 51 259 4012 0.419663425534 2.746018912556 2 1 1 2 2
323	16842005 75 150 150 0.234158752695 0.234158752695 3 1 1 3 3
324	16842080 50 125 125 0.216189795476 0.216189795476 2 1 1 2 2
