file 17169820 1426711278                                        
version 2
run MCoA_ALL-0-20150318-21:41:09-13808
attr configname MCoA_ALL
attr datetime 20150318-21:41:09
attr experiment MCoA_ALL
attr inifile VoIPMCoACN.ini
attr iterationvars ""
attr iterationvars2 $repetition=0
attr measurement ""
attr network VoIPMCoAMulti
attr processid 13808
attr repetition 0
attr replication #0
attr resultdir results
attr runnumber 0
attr seedset 0

vector 0  VoIPMCoAMulti.Ra.networkLayer.ipv6  IPv6Active_Event  ETV
vector 51  VoIPMCoAMulti.CN[0].networkLayer.ipv6  IPv6Active_Event  ETV
vector 76  VoIPMCoAMulti.HA.networkLayer.ipv6  IPv6Active_Event  ETV
vector 133  VoIPMCoAMulti.MN[0].networkLayer.ipv6  IPv6Active_Event  ETV
vector 156  VoIPMCoAMulti.MN[1].networkLayer.ipv6  IPv6Active_Event  ETV
vector 162  VoIPMCoAMulti.R1.networkLayer.ipv6  IPv6Active_Event  ETV
vector 241  VoIPMCoAMulti.Rb.networkLayer.ipv6  IPv6Active_Event  ETV
vector 109  VoIPMCoAMulti.AP_HA.wlan.mac  RadioState  ETV
attr enum  "IDLE=0, RECV=1, SLEEP=3, TRANSMIT=2"
attr enumname  RadioState
vector 108  VoIPMCoAMulti.AP_HA.wlan.mac  State  ETV
attr enum  "BACKOFF=3, DEFER=1, IDLE=0, RECEIVE=8, WAITACK=4, WAITBROADCAST=5, WAITCTS=6, WAITDIFS=2, WAITSIFS=7"
attr enumname  Ieee80211Mac
vector 137  VoIPMCoAMulti.MN[0].wlan[0].mac  RadioState  ETV
attr enum  "IDLE=0, RECV=1, SLEEP=3, TRANSMIT=2"
attr enumname  RadioState
vector 136  VoIPMCoAMulti.MN[0].wlan[0].mac  State  ETV
attr enum  "BACKOFF=3, DEFER=1, IDLE=0, RECEIVE=8, WAITACK=4, WAITBROADCAST=5, WAITCTS=6, WAITDIFS=2, WAITSIFS=7"
attr enumname  Ieee80211Mac
vector 142  VoIPMCoAMulti.MN[0].wlan[1].mac  RadioState  ETV
attr enum  "IDLE=0, RECV=1, SLEEP=3, TRANSMIT=2"
attr enumname  RadioState
vector 141  VoIPMCoAMulti.MN[0].wlan[1].mac  State  ETV
attr enum  "BACKOFF=3, DEFER=1, IDLE=0, RECEIVE=8, WAITACK=4, WAITBROADCAST=5, WAITCTS=6, WAITDIFS=2, WAITSIFS=7"
attr enumname  Ieee80211Mac
vector 147  VoIPMCoAMulti.MN[0].wlan[2].mac  RadioState  ETV
attr enum  "IDLE=0, RECV=1, SLEEP=3, TRANSMIT=2"
attr enumname  RadioState
vector 146  VoIPMCoAMulti.MN[0].wlan[2].mac  State  ETV
attr enum  "BACKOFF=3, DEFER=1, IDLE=0, RECEIVE=8, WAITACK=4, WAITBROADCAST=5, WAITCTS=6, WAITDIFS=2, WAITSIFS=7"
attr enumname  Ieee80211Mac
vector 160  VoIPMCoAMulti.MN[1].wlan[0].mac  RadioState  ETV
attr enum  "IDLE=0, RECV=1, SLEEP=3, TRANSMIT=2"
attr enumname  RadioState
vector 159  VoIPMCoAMulti.MN[1].wlan[0].mac  State  ETV
attr enum  "BACKOFF=3, DEFER=1, IDLE=0, RECEIVE=8, WAITACK=4, WAITBROADCAST=5, WAITCTS=6, WAITDIFS=2, WAITSIFS=7"
attr enumname  Ieee80211Mac
vector 209  VoIPMCoAMulti.AP_1.wlan.mac  RadioState  ETV
attr enum  "IDLE=0, RECV=1, SLEEP=3, TRANSMIT=2"
attr enumname  RadioState
vector 208  VoIPMCoAMulti.AP_1.wlan.mac  State  ETV
attr enum  "BACKOFF=3, DEFER=1, IDLE=0, RECEIVE=8, WAITACK=4, WAITBROADCAST=5, WAITCTS=6, WAITDIFS=2, WAITSIFS=7"
attr enumname  Ieee80211Mac
vector 227  VoIPMCoAMulti.AP_2.wlan.mac  RadioState  ETV
attr enum  "IDLE=0, RECV=1, SLEEP=3, TRANSMIT=2"
attr enumname  RadioState
vector 226  VoIPMCoAMulti.AP_2.wlan.mac  State  ETV
attr enum  "BACKOFF=3, DEFER=1, IDLE=0, RECEIVE=8, WAITACK=4, WAITBROADCAST=5, WAITCTS=6, WAITDIFS=2, WAITSIFS=7"
attr enumname  Ieee80211Mac
vector 43  VoIPMCoAMulti.CN[0].udpApp[0]  "MCOA VIDEO Packet Sent"  ETV
vector 177  VoIPMCoAMulti.R1.eth[1].queue  "queue length"  ETV
vector 91  VoIPMCoAMulti.HA.eth[1].queue  "queue length"  ETV
vector 191  VoIPMCoAMulti.R1.eth[2].queue  "queue length"  ETV
vector 271  VoIPMCoAMulti.CN[0].networkLayer.neighbourDiscovery  "Starting DAD"  ETV
vector 324  VoIPMCoAMulti.Rb.networkLayer.neighbourDiscovery  "Starting DAD"  ETV
vector 270  VoIPMCoAMulti.Ra.networkLayer.neighbourDiscovery  "Starting DAD"  ETV
vector 323  VoIPMCoAMulti.R1.networkLayer.neighbourDiscovery  "Starting DAD"  ETV
vector 297  VoIPMCoAMulti.MN[0].networkLayer.neighbourDiscovery  "Starting DAD"  ETV
vector 284  VoIPMCoAMulti.HA.networkLayer.neighbourDiscovery  "Starting DAD"  ETV
vector 310  VoIPMCoAMulti.MN[1].networkLayer.neighbourDiscovery  "Starting DAD"  ETV
vector 3  VoIPMCoAMulti.Ra.eth[0].mac  framesSent  ETV
vector 5  VoIPMCoAMulti.Ra.eth[0].mac  bytesSent  ETV
vector 17  VoIPMCoAMulti.Ra.eth[1].mac  framesSent  ETV
vector 19  VoIPMCoAMulti.Ra.eth[1].mac  bytesSent  ETV
vector 31  VoIPMCoAMulti.Ra.eth[2].mac  framesSent  ETV
vector 33  VoIPMCoAMulti.Ra.eth[2].mac  bytesSent  ETV
vector 54  VoIPMCoAMulti.CN[0].eth[0].mac  framesSent  ETV
vector 56  VoIPMCoAMulti.CN[0].eth[0].mac  bytesSent  ETV
vector 79  VoIPMCoAMulti.HA.eth[0].mac  framesSent  ETV
vector 81  VoIPMCoAMulti.HA.eth[0].mac  bytesSent  ETV
vector 93  VoIPMCoAMulti.HA.eth[1].mac  framesSent  ETV
vector 95  VoIPMCoAMulti.HA.eth[1].mac  bytesSent  ETV
vector 165  VoIPMCoAMulti.R1.eth[0].mac  framesSent  ETV
vector 167  VoIPMCoAMulti.R1.eth[0].mac  bytesSent  ETV
vector 179  VoIPMCoAMulti.R1.eth[1].mac  framesSent  ETV
vector 181  VoIPMCoAMulti.R1.eth[1].mac  bytesSent  ETV
vector 193  VoIPMCoAMulti.R1.eth[2].mac  framesSent  ETV
vector 195  VoIPMCoAMulti.R1.eth[2].mac  bytesSent  ETV
vector 244  VoIPMCoAMulti.Rb.eth[0].mac  framesSent  ETV
vector 246  VoIPMCoAMulti.Rb.eth[0].mac  bytesSent  ETV
vector 258  VoIPMCoAMulti.Rb.eth[1].mac  framesSent  ETV
vector 260  VoIPMCoAMulti.Rb.eth[1].mac  bytesSent  ETV
vector 80  VoIPMCoAMulti.HA.eth[0].mac  framesReceivedOK  ETV
vector 82  VoIPMCoAMulti.HA.eth[0].mac  bytesReceivedOK  ETV
vector 86  VoIPMCoAMulti.HA.eth[0].mac  framesPassedToHL  ETV
vector 166  VoIPMCoAMulti.R1.eth[0].mac  framesReceivedOK  ETV
vector 168  VoIPMCoAMulti.R1.eth[0].mac  bytesReceivedOK  ETV
vector 172  VoIPMCoAMulti.R1.eth[0].mac  framesPassedToHL  ETV
vector 4  VoIPMCoAMulti.Ra.eth[0].mac  framesReceivedOK  ETV
vector 6  VoIPMCoAMulti.Ra.eth[0].mac  bytesReceivedOK  ETV
vector 10  VoIPMCoAMulti.Ra.eth[0].mac  framesPassedToHL  ETV
vector 112  VoIPMCoAMulti.AP_HA.eth[0]  framesReceivedOK  ETV
vector 114  VoIPMCoAMulti.AP_HA.eth[0]  bytesReceivedOK  ETV
vector 118  VoIPMCoAMulti.AP_HA.eth[0]  framesPassedToHL  ETV
vector 18  VoIPMCoAMulti.Ra.eth[1].mac  framesReceivedOK  ETV
vector 20  VoIPMCoAMulti.Ra.eth[1].mac  bytesReceivedOK  ETV
vector 24  VoIPMCoAMulti.Ra.eth[1].mac  framesPassedToHL  ETV
vector 212  VoIPMCoAMulti.AP_1.eth[0]  framesReceivedOK  ETV
vector 214  VoIPMCoAMulti.AP_1.eth[0]  bytesReceivedOK  ETV
vector 218  VoIPMCoAMulti.AP_1.eth[0]  framesPassedToHL  ETV
vector 230  VoIPMCoAMulti.AP_2.eth[0]  framesReceivedOK  ETV
vector 232  VoIPMCoAMulti.AP_2.eth[0]  bytesReceivedOK  ETV
vector 236  VoIPMCoAMulti.AP_2.eth[0]  framesPassedToHL  ETV
vector 105  VoIPMCoAMulti.AP_HA.relayUnit  "buffer level"  ETV
vector 205  VoIPMCoAMulti.AP_1.relayUnit  "buffer level"  ETV
vector 223  VoIPMCoAMulti.AP_2.relayUnit  "buffer level"  ETV
vector 106  VoIPMCoAMulti.AP_HA.wlan.mgmt  "queue length"  ETV
vector 206  VoIPMCoAMulti.AP_1.wlan.mgmt  "queue length"  ETV
vector 224  VoIPMCoAMulti.AP_2.wlan.mgmt  "queue length"  ETV
vector 245  VoIPMCoAMulti.Rb.eth[0].mac  framesReceivedOK  ETV
vector 247  VoIPMCoAMulti.Rb.eth[0].mac  bytesReceivedOK  ETV
vector 251  VoIPMCoAMulti.Rb.eth[0].mac  framesPassedToHL  ETV
vector 32  VoIPMCoAMulti.Ra.eth[2].mac  framesReceivedOK  ETV
vector 34  VoIPMCoAMulti.Ra.eth[2].mac  bytesReceivedOK  ETV
vector 38  VoIPMCoAMulti.Ra.eth[2].mac  framesPassedToHL  ETV
vector 259  VoIPMCoAMulti.Rb.eth[1].mac  framesReceivedOK  ETV
vector 261  VoIPMCoAMulti.Rb.eth[1].mac  bytesReceivedOK  ETV
vector 265  VoIPMCoAMulti.Rb.eth[1].mac  framesPassedToHL  ETV
vector 55  VoIPMCoAMulti.CN[0].eth[0].mac  framesReceivedOK  ETV
vector 57  VoIPMCoAMulti.CN[0].eth[0].mac  bytesReceivedOK  ETV
vector 61  VoIPMCoAMulti.CN[0].eth[0].mac  framesPassedToHL  ETV
vector 161  VoIPMCoAMulti.MN[1].wlan[0].radio  "MAC loss rate"  ETV
vector 111  VoIPMCoAMulti.AP_HA.eth[0]  framesSent  ETV
vector 113  VoIPMCoAMulti.AP_HA.eth[0]  bytesSent  ETV
vector 94  VoIPMCoAMulti.HA.eth[1].mac  framesReceivedOK  ETV
vector 96  VoIPMCoAMulti.HA.eth[1].mac  bytesReceivedOK  ETV
vector 100  VoIPMCoAMulti.HA.eth[1].mac  framesPassedToHL  ETV
vector 138  VoIPMCoAMulti.MN[0].wlan[0].radio  "MAC loss rate"  ETV
vector 52  VoIPMCoAMulti.CN[0].eth[0].queue  "queue length"  ETV
vector 268  VoIPMCoAMulti.Rb.eth[1].mac  collisions  ETV
vector 269  VoIPMCoAMulti.Rb.eth[1].mac  backoffs  ETV
vector 64  VoIPMCoAMulti.CN[0].eth[0].mac  collisions  ETV
vector 77  VoIPMCoAMulti.HA.eth[0].queue  "queue length"  ETV
vector 29  VoIPMCoAMulti.Ra.eth[2].queue  "queue length"  ETV
vector 256  VoIPMCoAMulti.Rb.eth[1].queue  "queue length"  ETV
vector 110  VoIPMCoAMulti.AP_HA.wlan.radio  "MAC loss rate"  ETV
vector 298  VoIPMCoAMulti.MN[0].networkLayer.xMobileIPv6  "BU to HA"  ETV
vector 211  VoIPMCoAMulti.AP_1.eth[0]  framesSent  ETV
vector 213  VoIPMCoAMulti.AP_1.eth[0]  bytesSent  ETV
vector 180  VoIPMCoAMulti.R1.eth[1].mac  framesReceivedOK  ETV
vector 182  VoIPMCoAMulti.R1.eth[1].mac  bytesReceivedOK  ETV
vector 186  VoIPMCoAMulti.R1.eth[1].mac  framesPassedToHL  ETV
vector 288  VoIPMCoAMulti.HA.networkLayer.xMobileIPv6  "BA to MN"  ETV
vector 143  VoIPMCoAMulti.MN[0].wlan[1].radio  "MAC loss rate"  ETV
vector 302  VoIPMCoAMulti.MN[0].networkLayer.xMobileIPv6  "BA from HA"  ETV
vector 304  VoIPMCoAMulti.MN[0].networkLayer.xMobileIPv6  "HoTI to CN"  ETV
vector 305  VoIPMCoAMulti.MN[0].networkLayer.xMobileIPv6  "CoTI to CN"  ETV
vector 139  VoIPMCoAMulti.MN[0].wlan[1].mgmt  "queue length"  ETV
vector 293  VoIPMCoAMulti.HA.networkLayer.xMobileIPv6  "HoT to MN"  ETV
vector 294  VoIPMCoAMulti.HA.networkLayer.xMobileIPv6  "CoT to MN"  ETV
vector 308  VoIPMCoAMulti.MN[0].networkLayer.xMobileIPv6  "HoT from CN"  ETV
vector 309  VoIPMCoAMulti.MN[0].networkLayer.xMobileIPv6  "CoT from CN"  ETV
vector 299  VoIPMCoAMulti.MN[0].networkLayer.xMobileIPv6  "BU to CN"  ETV
vector 280  VoIPMCoAMulti.CN[0].networkLayer.xMobileIPv6  "HoT to MN"  ETV
vector 281  VoIPMCoAMulti.CN[0].networkLayer.xMobileIPv6  "CoT to MN"  ETV
vector 275  VoIPMCoAMulti.CN[0].networkLayer.xMobileIPv6  "BA to MN"  ETV
vector 303  VoIPMCoAMulti.MN[0].networkLayer.xMobileIPv6  "BA from CN"  ETV
vector 210  VoIPMCoAMulti.AP_1.wlan.radio  "MAC loss rate"  ETV
vector 148  VoIPMCoAMulti.MN[0].wlan[2].radio  "MAC loss rate"  ETV
vector 242  VoIPMCoAMulti.Rb.eth[0].queue  "queue length"  ETV
vector 229  VoIPMCoAMulti.AP_2.eth[0]  framesSent  ETV
vector 231  VoIPMCoAMulti.AP_2.eth[0]  bytesSent  ETV
vector 194  VoIPMCoAMulti.R1.eth[2].mac  framesReceivedOK  ETV
vector 196  VoIPMCoAMulti.R1.eth[2].mac  bytesReceivedOK  ETV
vector 200  VoIPMCoAMulti.R1.eth[2].mac  framesPassedToHL  ETV
vector 144  VoIPMCoAMulti.MN[0].wlan[2].mgmt  "queue length"  ETV
vector 15  VoIPMCoAMulti.Ra.eth[1].queue  "queue length"  ETV
vector 228  VoIPMCoAMulti.AP_2.wlan.radio  "MAC loss rate"  ETV
0	10766 8 0 0 0 0 1 1 1 1 1
3	10774 1115 555 83471 1.0000672 43.688616598665 49 1 49 1225 40425
4	11889 505 817 83484 1.0100672 43.708683798665 20 1 20 210 2870
5	12394 1243 555 83471 1.0000672 43.688616598665 49 64 16902 481156 6185066192
6	13637 542 817 83484 1.0100672 43.708683798665 20 64 2698 25550 50668260
10	14179 525 817 83484 1.0100672 43.708683798665 20 1 20 210 2870
15	14704 175 96271 96301 49.5407776 49.5420112 8 0 1 4 4
17	14879 5770 556 109536 1.0000672 55.0402752 242 1 242 29403 4753485
18	20649 478 819 96387 1.0100672 49.560912 18 1 18 171 2109
19	21127 6336 556 109536 1.0000672 55.0402752 242 64 105488 12497902 882214101636
20	27463 512 819 96387 1.0100672 49.560912 18 64 1846 16510 20790892
24	27975 478 819 96387 1.0100672 49.560912 18 1 18 171 2109
29	28453 54 19230 19234 10.080695940874 10.080764740874 2 0 1 1 1
31	28507 304 557 76035 1.0000672 38.916515615443 12 1 12 78 650
32	28811 6257 1465 109528 1.0200672 55.0402064 265 1 265 35245 6238365
33	35068 325 557 76035 1.0000672 38.916515615443 12 64 1046 5996 4125864
34	35393 6910 1465 109528 1.0200672 55.0402064 265 64 118892 15665114 1245705379844
38	42303 6257 1465 109528 1.0200672 55.0402064 265 1 265 35245 6238365
43	48560 3286 2 109427 0 55 201 1 201 20301 2727101
51	51846 9 0 0 0 0 1 1 1 1 1
52	51855 5849 14921 109437 8 55.0000688 314 0 4 355 693
54	57704 6518 558 109441 1.0000672 55.0001376 274 1 274 37675 6894525
55	64222 386 1467 83293 1.0200672 43.5416896 15 1 15 120 1240
56	64608 7191 558 109441 1.0000672 55.0001376 274 64 121478 16379318 1330011257884
57	71799 412 1467 83293 1.0200672 43.5416896 15 64 1238 8962 7410572
61	72211 386 1467 83293 1.0200672 43.5416896 15 1 15 120 1240
64	72597 109 15001 83290 8.0400768 43.5412432 5 1 5 15 55
76	72706 37 0 66877 0 35 3 1 2 4 6
77	72743 98 18993 29726 10.030492740874 14.5515872 4 0 1 2 2
79	72841 525 559 83482 1.0000672 43.698683798665 20 1 20 210 2870
80	73366 1165 815 83473 1.0100672 43.698616598665 49 1 49 1225 40425
81	74531 562 559 83482 1.0000672 43.698683798665 20 64 2698 25550 50668260
82	75093 1293 815 83473 1.0100672 43.698616598665 49 64 16902 481156 6185066192
86	76386 1165 815 83473 1.0100672 43.698616598665 49 1 49 1225 40425
91	77551 932 76 6927 0.115677423169 4.132924239142 42 0 19 365 4585
93	78483 121112 560 380431 1.0000672 199.967806793875 3943 1 3943 7775596 20442041884
94	199595 156 6904 30877 4.132146639142 15.010346211736 6 1 6 21 91
95	199751 128602 560 380431 1.0000672 199.967806793875 3943 64 264814 544120600 96665519854264
96	328353 166 6904 30877 4.132146639142 15.010346211736 6 40 256 880 162816
100	328519 162 6904 30877 4.132146639142 15.010346211736 6 1 6 21 91
105	328681 232991 825 380447 1.0100672 199.977808793875 7898 0 466 265070 22766396
106	561672 898 878 6996 1.0102036 4.143388587376 38 0 16 289 3115
108	562570 2442058 0 380483 0 199.985073900997 83980 0 7 216740 819136
109	3004628 707638 0 380475 0 199.985023900997 24354 0 2 24192 48224
110	3712266 28 26789 26789 13.563279743524 13.563279743524 1 0 0 0 0
111	3712294 162 6863 30835 4.122146639142 15.000346211736 6 1 6 21 91
112	3712456 125066 818 380445 1.0100672 199.977806793875 3943 1 3943 7775596 20442041884
113	3837522 172 6863 30835 4.122146639142 15.000346211736 6 40 256 880 162816
114	3837694 132556 818 380445 1.0100672 199.977806793875 3943 64 264814 544120600 96665519854264
118	3970250 125066 818 380445 1.0100672 199.977806793875 3943 1 3943 7775596 20442041884
133	4095316 10 0 0 0 0 1 1 1 1 1
136	4095326 624166 0 380480 0 199.985024571458 21576 0 7 19048 73668
137	4719492 339700 0 380479 0 199.985024571458 11784 0 2 6980 9160
138	5059192 1381 8215 380479 4.735155690365 199.985024571458 48 0 0 0 0
139	5060573 112 28521 28571 14.299057687118 14.301461770088 4 0 2 4 6
141	5060685 825588 0 380221 0 199.843526130927 28410 0 7 12682 53918
142	5886273 508884 0 380219 0 199.842936130927 17524 0 2 9608 11304
143	6395157 2297 28506 353063 14.299057687118 184.961341410073 79 0 0 0 0
144	6397454 111 75127 75183 38.750100905981 38.752544931799 4 0 2 4 6
146	6397565 585778 0 380413 0 199.963037018927 19990 0 7 20100 77540
147	6983343 310520 0 380411 0 199.962927018927 10568 0 2 6428 8720
148	7293863 1214 74268 312722 38.462655885303 163.673783980597 41 0 0 0 0
156	7295077 10 0 0 0 0 1 1 1 1 1
159	7295087 1085868 0 380477 0 199.985024332493 37342 0 7 350 1390
160	8380955 717006 0 380476 0 199.985024332493 24644 0 2 12338 12374
161	9097961 3580 6357 380456 3.976739013338 199.978105043552 123 0 0 0 0
162	9101541 70 0 85204 0 45 5 1 2 7 11
165	9101611 496 561 96329 1.0000672 49.550912 18 1 18 171 2109
166	9102107 6016 816 109570 1.0100672 55.0502752 242 1 242 29403 4753485
167	9108123 530 561 96329 1.0000672 49.550912 18 64 1846 16510 20790892
168	9108653 6582 816 109570 1.0100672 55.0502752 242 64 105488 12497902 882214101636
172	9115235 6016 816 109570 1.0100672 55.0502752 242 1 242 29403 4753485
177	9121251 1013 73 96349 0.09995410364 49.5516224 44 0 20 402 5342
179	9122264 124789 562 380496 1.0000672 199.995504161184 3949 1 3949 7799275 20535491075
180	9247053 277 28119 96596 14.187206943074 49.573306085476 10 1 10 55 385
181	9247330 132707 562 380496 1.0000672 199.995504161184 3949 64 302176 661638004 1.3967090932792e+14
182	9380037 296 28119 96596 14.187206943074 49.573306085476 10 108 756 4344 2398376
186	9380333 277 28119 96596 14.187206943074 49.573306085476 10 1 10 55 385
191	9380610 1010 79 76476 0.118605855963 39.051944 44 0 21 442 6182
193	9381620 122915 563 380390 1.0000672 199.95240074346 3874 1 3874 7505875 19387675125
194	9504535 252 74854 77463 38.678414998665 39.473382430632 9 1 9 45 285
195	9504787 130318 563 380390 1.0000672 199.95240074346 3874 64 265984 535513152 96949099388344
196	9635105 270 74854 77463 38.678414998665 39.473382430632 9 130 782 3896 2145752
200	9635375 252 74854 77463 38.678414998665 39.473382430632 9 1 9 45 285
205	9635627 232700 827 380435 1.0100672 199.975018688127 7916 0 506 302868 42364800
206	9868327 1101 879 96538 1.0102036 49.564409903657 46 0 16 299 3059
208	9869428 2426938 0 380443 0 199.975444506308 83996 0 7 217642 822226
209	12296366 712704 0 380441 0 199.975314506308 24670 0 2 24318 48286
210	13009070 85 49396 171777 25.563380140712 88.192936960736 3 0 0 0 0
211	13009155 277 28085 96503 14.177206943074 49.563306085476 10 1 10 55 385
212	13009432 124767 820 380433 1.0100672 199.975016688127 3948 1 3948 7795326 20519896474
213	13134199 296 28085 96503 14.177206943074 49.563306085476 10 108 756 4344 2398376
214	13134495 132683 820 380433 1.0100672 199.975016688127 3948 64 302112 661335828 1.3957959899294e+14
218	13267178 124767 820 380433 1.0100672 199.975016688127 3948 1 3948 7795326 20519896474
223	13391945 229261 828 380396 1.0100672 199.96240274346 7766 0 466 266766 25389660
224	13621206 2250 880 108590 1.0102036 54.575627818178 90 0 18 387 4309
226	13623456 2425544 0 380417 0 199.963200915092 83312 0 7 215878 815494
227	16049000 705400 0 380415 0 199.963130915092 24242 0 2 24108 48084
228	16754400 28 97792 97792 50.064529045048 50.064529045048 1 0 0 0 0
229	16754428 252 74828 77420 38.668414998665 39.463382430632 9 1 9 45 285
230	16754680 122927 821 380394 1.0100672 199.96240074346 3874 1 3874 7505875 19387675125
231	16877607 270 74828 77420 38.668414998665 39.463382430632 9 130 782 3896 2145752
232	16877877 130330 821 380394 1.0100672 199.96240074346 3874 64 265984 535513152 96949099388344
236	17008207 122927 821 380394 1.0100672 199.96240074346 3874 1 3874 7505875 19387675125
241	17131134 10 0 0 0 0 1 1 1 1 1
242	17131144 91 74423 74435 38.5203888 38.5208448 4 0 1 2 2
244	17131235 6521 564 109493 1.0000672 55.0202064 265 1 265 35245 6238365
245	17137756 317 1464 76037 1.0200672 38.936515615443 12 1 12 78 650
246	17138073 7174 564 109493 1.0000672 55.0202064 265 64 118892 15665114 1245705379844
247	17145247 338 1464 76037 1.0200672 38.936515615443 12 64 1046 5996 4125864
251	17145585 317 1464 76037 1.0200672 38.936515615443 12 1 12 78 650
256	17145902 56 19369 19373 10.140899140874 10.140967940874 2 0 1 1 1
258	17145958 400 565 83268 1.0000672 43.5216896 15 1 15 120 1240
259	17146358 6671 1466 109485 1.0200672 55.0201376 269 1 269 36315 6524595
260	17153029 426 565 83268 1.0000672 43.5216896 15 64 1238 8962 7410572
261	17153455 7329 1466 109485 1.0200672 55.0201376 269 64 119148 15769192 1256140513496
265	17160784 6671 1466 109485 1.0200672 55.0201376 269 1 269 36315 6524595
268	17167455 114 14984 83263 8.0200768 43.5212432 5 1 5 15 55
269	17167569 110 14985 83264 8.02008 43.5212464 5 1 5 15 55
270	17167679 75 137 137 0.233447027066 0.233447027066 3 1 1 3 3
271	17167754 50 92 3669 0.156140310969 2.528305054092 2 1 1 2 2
275	17167804 53 29550 76095 14.505920525 38.956650015443 2 2 2 4 8
280	17167857 56 28923 75557 14.362684818103 38.813547965526 2 1 1 2 2
281	17167913 56 28954 75584 14.363407859588 38.814270978435 2 1 1 2 2
284	17167969 50 203 203 0.293585502868 0.293585502868 2 1 1 2 2
288	17168019 112 28215 75678 14.227574943074 38.844203856435 4 1 1 4 4
293	17168131 56 28734 75352 14.330425935133 38.781429139708 2 1 1 2 2
294	17168187 56 28747 75365 14.331468976618 38.782552152617 2 1 1 2 2
297	17168243 157 196 71208 0.289443216007 37.065979522916 6 1 1 6 6
298	17168400 56 28066 74809 14.176756473767 38.667930943688 2 1 1 2 2
299	17168456 631 28900 376522 14.362029839706 197.813113004526 22 1 1 22 22
302	17169087 56 28510 75116 14.299057687118 38.750100905981 2 1 1 2 2
303	17169143 56 29794 76315 14.566657236421 39.017473115768 2 1 1 2 2
304	17169199 112 28511 75119 14.299057687118 38.750100905981 4 1 1 4 4
305	17169311 112 28512 75120 14.299057687118 38.750100905981 4 1 1 4 4
308	17169423 109 28876 75910 14.36118068913 38.894600305278 4 1 1 4 4
309	17169532 112 28899 75831 14.362029839706 38.874913427278 4 1 1 4 4
310	17169644 51 259 4012 0.419663425534 2.746018912556 2 1 1 2 2
323	17169695 75 150 150 0.234158752695 0.234158752695 3 1 1 3 3
324	17169770 50 125 125 0.216189795476 0.216189795476 2 1 1 2 2
