file 17442717 1425939621                                        
version 2
run MCoA_ALL-0-20150309-23:20:13-29075
attr configname MCoA_ALL
attr datetime 20150309-23:20:13
attr experiment MCoA_ALL
attr inifile VoIPMCoACN.ini
attr iterationvars ""
attr iterationvars2 $repetition=0
attr measurement ""
attr network VoIPMCoAMulti
attr processid 29075
attr repetition 0
attr replication #0
attr resultdir results
attr runnumber 0
attr seedset 0

vector 0  VoIPMCoAMulti.Ra.networkLayer.ipv6  IPv6Active_Event  ETV
vector 48  VoIPMCoAMulti.CN[0].networkLayer.ipv6  IPv6Active_Event  ETV
vector 70  VoIPMCoAMulti.HA.networkLayer.ipv6  IPv6Active_Event  ETV
vector 124  VoIPMCoAMulti.MN[0].networkLayer.ipv6  IPv6Active_Event  ETV
vector 144  VoIPMCoAMulti.MN[1].networkLayer.ipv6  IPv6Active_Event  ETV
vector 150  VoIPMCoAMulti.R1.networkLayer.ipv6  IPv6Active_Event  ETV
vector 229  VoIPMCoAMulti.Rb.networkLayer.ipv6  IPv6Active_Event  ETV
vector 103  VoIPMCoAMulti.AP_HA.wlan.mac  RadioState  ETV
attr enum  "IDLE=0, RECV=1, SLEEP=3, TRANSMIT=2"
attr enumname  RadioState
vector 102  VoIPMCoAMulti.AP_HA.wlan.mac  State  ETV
attr enum  "BACKOFF=3, DEFER=1, IDLE=0, RECEIVE=8, WAITACK=4, WAITBROADCAST=5, WAITCTS=6, WAITDIFS=2, WAITSIFS=7"
attr enumname  Ieee80211Mac
vector 128  VoIPMCoAMulti.MN[0].wlan[0].mac  RadioState  ETV
attr enum  "IDLE=0, RECV=1, SLEEP=3, TRANSMIT=2"
attr enumname  RadioState
vector 127  VoIPMCoAMulti.MN[0].wlan[0].mac  State  ETV
attr enum  "BACKOFF=3, DEFER=1, IDLE=0, RECEIVE=8, WAITACK=4, WAITBROADCAST=5, WAITCTS=6, WAITDIFS=2, WAITSIFS=7"
attr enumname  Ieee80211Mac
vector 133  VoIPMCoAMulti.MN[0].wlan[1].mac  RadioState  ETV
attr enum  "IDLE=0, RECV=1, SLEEP=3, TRANSMIT=2"
attr enumname  RadioState
vector 132  VoIPMCoAMulti.MN[0].wlan[1].mac  State  ETV
attr enum  "BACKOFF=3, DEFER=1, IDLE=0, RECEIVE=8, WAITACK=4, WAITBROADCAST=5, WAITCTS=6, WAITDIFS=2, WAITSIFS=7"
attr enumname  Ieee80211Mac
vector 138  VoIPMCoAMulti.MN[0].wlan[2].mac  RadioState  ETV
attr enum  "IDLE=0, RECV=1, SLEEP=3, TRANSMIT=2"
attr enumname  RadioState
vector 137  VoIPMCoAMulti.MN[0].wlan[2].mac  State  ETV
attr enum  "BACKOFF=3, DEFER=1, IDLE=0, RECEIVE=8, WAITACK=4, WAITBROADCAST=5, WAITCTS=6, WAITDIFS=2, WAITSIFS=7"
attr enumname  Ieee80211Mac
vector 148  VoIPMCoAMulti.MN[1].wlan[0].mac  RadioState  ETV
attr enum  "IDLE=0, RECV=1, SLEEP=3, TRANSMIT=2"
attr enumname  RadioState
vector 147  VoIPMCoAMulti.MN[1].wlan[0].mac  State  ETV
attr enum  "BACKOFF=3, DEFER=1, IDLE=0, RECEIVE=8, WAITACK=4, WAITBROADCAST=5, WAITCTS=6, WAITDIFS=2, WAITSIFS=7"
attr enumname  Ieee80211Mac
vector 197  VoIPMCoAMulti.AP_1.wlan.mac  RadioState  ETV
attr enum  "IDLE=0, RECV=1, SLEEP=3, TRANSMIT=2"
attr enumname  RadioState
vector 196  VoIPMCoAMulti.AP_1.wlan.mac  State  ETV
attr enum  "BACKOFF=3, DEFER=1, IDLE=0, RECEIVE=8, WAITACK=4, WAITBROADCAST=5, WAITCTS=6, WAITDIFS=2, WAITSIFS=7"
attr enumname  Ieee80211Mac
vector 215  VoIPMCoAMulti.AP_2.wlan.mac  RadioState  ETV
attr enum  "IDLE=0, RECV=1, SLEEP=3, TRANSMIT=2"
attr enumname  RadioState
vector 214  VoIPMCoAMulti.AP_2.wlan.mac  State  ETV
attr enum  "BACKOFF=3, DEFER=1, IDLE=0, RECEIVE=8, WAITACK=4, WAITBROADCAST=5, WAITCTS=6, WAITDIFS=2, WAITSIFS=7"
attr enumname  Ieee80211Mac
vector 43  VoIPMCoAMulti.CN[0].udpApp[0]  "MCOA VIDEO Packet Sent"  ETV
vector 165  VoIPMCoAMulti.R1.eth[1].queue  "queue length"  ETV
vector 85  VoIPMCoAMulti.HA.eth[1].queue  "queue length"  ETV
vector 179  VoIPMCoAMulti.R1.eth[2].queue  "queue length"  ETV
vector 259  VoIPMCoAMulti.CN[0].networkLayer.neighbourDiscovery  "Starting DAD"  ETV
vector 312  VoIPMCoAMulti.Rb.networkLayer.neighbourDiscovery  "Starting DAD"  ETV
vector 258  VoIPMCoAMulti.Ra.networkLayer.neighbourDiscovery  "Starting DAD"  ETV
vector 311  VoIPMCoAMulti.R1.networkLayer.neighbourDiscovery  "Starting DAD"  ETV
vector 285  VoIPMCoAMulti.MN[0].networkLayer.neighbourDiscovery  "Starting DAD"  ETV
vector 272  VoIPMCoAMulti.HA.networkLayer.neighbourDiscovery  "Starting DAD"  ETV
vector 298  VoIPMCoAMulti.MN[1].networkLayer.neighbourDiscovery  "Starting DAD"  ETV
vector 3  VoIPMCoAMulti.Ra.eth[0].mac  framesSent  ETV
vector 5  VoIPMCoAMulti.Ra.eth[0].mac  bytesSent  ETV
vector 17  VoIPMCoAMulti.Ra.eth[1].mac  framesSent  ETV
vector 19  VoIPMCoAMulti.Ra.eth[1].mac  bytesSent  ETV
vector 31  VoIPMCoAMulti.Ra.eth[2].mac  framesSent  ETV
vector 33  VoIPMCoAMulti.Ra.eth[2].mac  bytesSent  ETV
vector 51  VoIPMCoAMulti.CN[0].eth[0].mac  framesSent  ETV
vector 53  VoIPMCoAMulti.CN[0].eth[0].mac  bytesSent  ETV
vector 73  VoIPMCoAMulti.HA.eth[0].mac  framesSent  ETV
vector 75  VoIPMCoAMulti.HA.eth[0].mac  bytesSent  ETV
vector 87  VoIPMCoAMulti.HA.eth[1].mac  framesSent  ETV
vector 89  VoIPMCoAMulti.HA.eth[1].mac  bytesSent  ETV
vector 153  VoIPMCoAMulti.R1.eth[0].mac  framesSent  ETV
vector 155  VoIPMCoAMulti.R1.eth[0].mac  bytesSent  ETV
vector 167  VoIPMCoAMulti.R1.eth[1].mac  framesSent  ETV
vector 169  VoIPMCoAMulti.R1.eth[1].mac  bytesSent  ETV
vector 181  VoIPMCoAMulti.R1.eth[2].mac  framesSent  ETV
vector 183  VoIPMCoAMulti.R1.eth[2].mac  bytesSent  ETV
vector 232  VoIPMCoAMulti.Rb.eth[0].mac  framesSent  ETV
vector 234  VoIPMCoAMulti.Rb.eth[0].mac  bytesSent  ETV
vector 246  VoIPMCoAMulti.Rb.eth[1].mac  framesSent  ETV
vector 248  VoIPMCoAMulti.Rb.eth[1].mac  bytesSent  ETV
vector 74  VoIPMCoAMulti.HA.eth[0].mac  framesReceivedOK  ETV
vector 76  VoIPMCoAMulti.HA.eth[0].mac  bytesReceivedOK  ETV
vector 80  VoIPMCoAMulti.HA.eth[0].mac  framesPassedToHL  ETV
vector 154  VoIPMCoAMulti.R1.eth[0].mac  framesReceivedOK  ETV
vector 156  VoIPMCoAMulti.R1.eth[0].mac  bytesReceivedOK  ETV
vector 160  VoIPMCoAMulti.R1.eth[0].mac  framesPassedToHL  ETV
vector 4  VoIPMCoAMulti.Ra.eth[0].mac  framesReceivedOK  ETV
vector 6  VoIPMCoAMulti.Ra.eth[0].mac  bytesReceivedOK  ETV
vector 10  VoIPMCoAMulti.Ra.eth[0].mac  framesPassedToHL  ETV
vector 106  VoIPMCoAMulti.AP_HA.eth[0]  framesReceivedOK  ETV
vector 108  VoIPMCoAMulti.AP_HA.eth[0]  bytesReceivedOK  ETV
vector 112  VoIPMCoAMulti.AP_HA.eth[0]  framesPassedToHL  ETV
vector 18  VoIPMCoAMulti.Ra.eth[1].mac  framesReceivedOK  ETV
vector 20  VoIPMCoAMulti.Ra.eth[1].mac  bytesReceivedOK  ETV
vector 24  VoIPMCoAMulti.Ra.eth[1].mac  framesPassedToHL  ETV
vector 200  VoIPMCoAMulti.AP_1.eth[0]  framesReceivedOK  ETV
vector 202  VoIPMCoAMulti.AP_1.eth[0]  bytesReceivedOK  ETV
vector 206  VoIPMCoAMulti.AP_1.eth[0]  framesPassedToHL  ETV
vector 218  VoIPMCoAMulti.AP_2.eth[0]  framesReceivedOK  ETV
vector 220  VoIPMCoAMulti.AP_2.eth[0]  bytesReceivedOK  ETV
vector 224  VoIPMCoAMulti.AP_2.eth[0]  framesPassedToHL  ETV
vector 99  VoIPMCoAMulti.AP_HA.relayUnit  "buffer level"  ETV
vector 193  VoIPMCoAMulti.AP_1.relayUnit  "buffer level"  ETV
vector 211  VoIPMCoAMulti.AP_2.relayUnit  "buffer level"  ETV
vector 100  VoIPMCoAMulti.AP_HA.wlan.mgmt  "queue length"  ETV
vector 194  VoIPMCoAMulti.AP_1.wlan.mgmt  "queue length"  ETV
vector 212  VoIPMCoAMulti.AP_2.wlan.mgmt  "queue length"  ETV
vector 233  VoIPMCoAMulti.Rb.eth[0].mac  framesReceivedOK  ETV
vector 235  VoIPMCoAMulti.Rb.eth[0].mac  bytesReceivedOK  ETV
vector 239  VoIPMCoAMulti.Rb.eth[0].mac  framesPassedToHL  ETV
vector 32  VoIPMCoAMulti.Ra.eth[2].mac  framesReceivedOK  ETV
vector 34  VoIPMCoAMulti.Ra.eth[2].mac  bytesReceivedOK  ETV
vector 38  VoIPMCoAMulti.Ra.eth[2].mac  framesPassedToHL  ETV
vector 247  VoIPMCoAMulti.Rb.eth[1].mac  framesReceivedOK  ETV
vector 249  VoIPMCoAMulti.Rb.eth[1].mac  bytesReceivedOK  ETV
vector 253  VoIPMCoAMulti.Rb.eth[1].mac  framesPassedToHL  ETV
vector 52  VoIPMCoAMulti.CN[0].eth[0].mac  framesReceivedOK  ETV
vector 54  VoIPMCoAMulti.CN[0].eth[0].mac  bytesReceivedOK  ETV
vector 58  VoIPMCoAMulti.CN[0].eth[0].mac  framesPassedToHL  ETV
vector 149  VoIPMCoAMulti.MN[1].wlan[0].radio  "MAC loss rate"  ETV
vector 105  VoIPMCoAMulti.AP_HA.eth[0]  framesSent  ETV
vector 107  VoIPMCoAMulti.AP_HA.eth[0]  bytesSent  ETV
vector 88  VoIPMCoAMulti.HA.eth[1].mac  framesReceivedOK  ETV
vector 90  VoIPMCoAMulti.HA.eth[1].mac  bytesReceivedOK  ETV
vector 94  VoIPMCoAMulti.HA.eth[1].mac  framesPassedToHL  ETV
vector 129  VoIPMCoAMulti.MN[0].wlan[0].radio  "MAC loss rate"  ETV
vector 49  VoIPMCoAMulti.CN[0].eth[0].queue  "queue length"  ETV
vector 256  VoIPMCoAMulti.Rb.eth[1].mac  collisions  ETV
vector 257  VoIPMCoAMulti.Rb.eth[1].mac  backoffs  ETV
vector 61  VoIPMCoAMulti.CN[0].eth[0].mac  collisions  ETV
vector 46  VoIPMCoAMulti.CN[0].pingApp  "PING: Ping Request"  ETV
vector 230  VoIPMCoAMulti.Rb.eth[0].queue  "queue length"  ETV
vector 1  VoIPMCoAMulti.Ra.eth[0].queue  "queue length"  ETV
vector 47  VoIPMCoAMulti.CN[0].pingApp  "PING: Ping Reply"  ETV
vector 44  VoIPMCoAMulti.CN[0].pingApp  pingRTT  ETV
vector 104  VoIPMCoAMulti.AP_HA.wlan.radio  "MAC loss rate"  ETV
vector 286  VoIPMCoAMulti.MN[0].networkLayer.xMobileIPv6  "BU to HA"  ETV
vector 199  VoIPMCoAMulti.AP_1.eth[0]  framesSent  ETV
vector 201  VoIPMCoAMulti.AP_1.eth[0]  bytesSent  ETV
vector 134  VoIPMCoAMulti.MN[0].wlan[1].radio  "MAC loss rate"  ETV
vector 168  VoIPMCoAMulti.R1.eth[1].mac  framesReceivedOK  ETV
vector 170  VoIPMCoAMulti.R1.eth[1].mac  bytesReceivedOK  ETV
vector 174  VoIPMCoAMulti.R1.eth[1].mac  framesPassedToHL  ETV
vector 276  VoIPMCoAMulti.HA.networkLayer.xMobileIPv6  "BA to MN"  ETV
vector 290  VoIPMCoAMulti.MN[0].networkLayer.xMobileIPv6  "BA from HA"  ETV
vector 292  VoIPMCoAMulti.MN[0].networkLayer.xMobileIPv6  "HoTI to CN"  ETV
vector 293  VoIPMCoAMulti.MN[0].networkLayer.xMobileIPv6  "CoTI to CN"  ETV
vector 130  VoIPMCoAMulti.MN[0].wlan[1].mgmt  "queue length"  ETV
vector 71  VoIPMCoAMulti.HA.eth[0].queue  "queue length"  ETV
vector 281  VoIPMCoAMulti.HA.networkLayer.xMobileIPv6  "HoT to MN"  ETV
vector 282  VoIPMCoAMulti.HA.networkLayer.xMobileIPv6  "CoT to MN"  ETV
vector 296  VoIPMCoAMulti.MN[0].networkLayer.xMobileIPv6  "HoT from CN"  ETV
vector 297  VoIPMCoAMulti.MN[0].networkLayer.xMobileIPv6  "CoT from CN"  ETV
vector 287  VoIPMCoAMulti.MN[0].networkLayer.xMobileIPv6  "BU to CN"  ETV
vector 268  VoIPMCoAMulti.CN[0].networkLayer.xMobileIPv6  "HoT to MN"  ETV
vector 269  VoIPMCoAMulti.CN[0].networkLayer.xMobileIPv6  "CoT to MN"  ETV
vector 263  VoIPMCoAMulti.CN[0].networkLayer.xMobileIPv6  "BA to MN"  ETV
vector 291  VoIPMCoAMulti.MN[0].networkLayer.xMobileIPv6  "BA from CN"  ETV
vector 15  VoIPMCoAMulti.Ra.eth[1].queue  "queue length"  ETV
vector 198  VoIPMCoAMulti.AP_1.wlan.radio  "MAC loss rate"  ETV
vector 45  VoIPMCoAMulti.CN[0].pingApp  pingDrop  ETV
vector 217  VoIPMCoAMulti.AP_2.eth[0]  framesSent  ETV
vector 219  VoIPMCoAMulti.AP_2.eth[0]  bytesSent  ETV
vector 182  VoIPMCoAMulti.R1.eth[2].mac  framesReceivedOK  ETV
vector 184  VoIPMCoAMulti.R1.eth[2].mac  bytesReceivedOK  ETV
vector 188  VoIPMCoAMulti.R1.eth[2].mac  framesPassedToHL  ETV
vector 135  VoIPMCoAMulti.MN[0].wlan[2].mgmt  "queue length"  ETV
vector 139  VoIPMCoAMulti.MN[0].wlan[2].radio  "MAC loss rate"  ETV
vector 151  VoIPMCoAMulti.R1.eth[0].queue  "queue length"  ETV
vector 216  VoIPMCoAMulti.AP_2.wlan.radio  "MAC loss rate"  ETV
0	11000 8 0 0 0 0 1 1 1 1 1
1	11008 210 18978 28698 10.0409536 14.0403216 10 0 1 5 5
3	11218 1439 551 89777 1.0000672 43.157783042271 64 1 64 2080 89440
4	12657 877 813 89810 1.0100672 43.177850242271 34 1 34 595 13685
5	13534 1608 551 89777 1.0000672 43.157783042271 64 64 18132 680564 9159863808
6	15142 943 813 89810 1.0100672 43.177850242271 34 64 4582 82592 273601808
10	16085 911 813 89810 1.0100672 43.177850242271 34 1 34 595 13685
15	16996 2008 32287 384292 15.0413616 193.04032 92 0 1 46 46
17	19004 13342 552 386261 1.0000672 194.0403792 547 1 547 149878 54705470
18	32346 2957 815 384338 1.0100672 193.0603872 116 1 116 6786 527046
19	35303 14712 552 386261 1.0000672 194.0403792 547 64 140716 42869236 4418083298704
20	50015 3220 815 384338 1.0100672 193.0603872 116 64 17964 1019316 12535795656
24	53235 2957 815 384338 1.0100672 193.0603872 116 1 116 6786 527046
31	56192 3154 553 363609 1.0000672 182.0402608 123 1 123 7626 627874
32	59346 14190 1461 386254 1.0200672 194.0402528 584 1 584 170820 66562860
33	73536 3430 553 363609 1.0000672 182.0402608 123 64 18942 1130286 14569645700
34	76966 15694 1461 386254 1.0200672 194.0402528 584 64 155244 50890464 5763383627752
38	92660 14190 1461 386254 1.0200672 194.0402528 584 1 584 170820 66562860
43	106850 3300 2 120559 0 55 201 1 201 20301 2727101
44	110150 1102 19662 361818 10.225299615758 181.121694152534 27 0.121694143802 0.225299615758 3.427661776623 0.44524053674656
45	111252 57 51586 339027 25.124555630883 170.12169421261 2 5 145 150 21050
46	111309 3092 18793 386145 10 194 185 0 184 17020 2093460
47	114401 781 19662 361818 10.225299615758 181.121694152534 27 0 171 2116 330566
48	115182 9 0 0 0 0 1 1 1 1 1
49	115191 12407 14917 373010 8 187.0000672 666 0 6 1395 4549
51	127598 14484 554 386154 1.0000672 194.0001264 594 1 594 176715 70038045
52	142082 3296 1463 382385 1.0200672 192.0401936 127 1 127 8128 690880
53	145378 16011 554 386154 1.0000672 194.0001264 594 64 156582 52133710 5962852238460
54	161389 3577 1463 382385 1.0200672 192.0401936 127 64 19198 1174728 15394588376
58	164966 3296 1463 382385 1.0200672 192.0401936 127 1 127 8128 690880
61	168262 116 14997 373064 8.0400768 187.0400768 5 1 5 15 55
70	168378 37 0 71959 0 35 3 1 2 4 6
71	168415 42 30413 30414 14.551624 14.551656 2 0 1 1 1
73	168457 911 555 89800 1.0000672 43.167850242271 34 1 34 595 13685
74	169368 1504 811 89791 1.0100672 43.167783042271 64 1 64 2080 89440
75	170872 977 555 89800 1.0000672 43.167850242271 34 64 4582 82592 273601808
76	171849 1673 811 89791 1.0100672 43.167783042271 64 64 18132 680564 9159863808
80	173522 1504 811 89791 1.0100672 43.167783042271 64 1 64 2080 89440
85	175026 1151 72 28778 0.115677423169 14.0504288 52 0 19 370 4590
87	176177 121450 556 397256 1.0000672 199.987502760507 3954 1 3954 7819035 20613582605
88	297627 573 6900 63465 4.132146639142 30.074185590319 21 1 21 231 3311
89	298200 128966 556 397256 1.0000672 199.987502760507 3954 64 265786 547969634 97727693550380
90	427166 610 6900 63465 4.132146639142 30.074185590319 21 40 1964 18600 24205984
94	427776 573 6900 63465 4.132146639142 30.074185590319 21 1 21 231 3311
99	428349 226560 821 397272 1.0100672 199.997504760507 7950 0 466 267750 23050084
100	654909 948 874 19126 1.0102036 10.062477156768 40 0 16 290 3116
102	655857 2446300 0 397286 0 199.997870578688 84092 0 7 217024 820796
103	3102157 711118 0 397279 0 199.997800578688 24470 0 2 24278 48366
104	3813275 28 23878 23878 12.061026014982 12.061026014982 1 0 0 0 0
105	3813303 594 6859 63437 4.122146639142 30.064185590319 21 1 21 231 3311
106	3813897 125415 814 397270 1.0100672 199.997502760507 3954 1 3954 7819035 20613582605
107	3939312 631 6859 63437 4.122146639142 30.064185590319 21 40 1964 18600 24205984
108	3939943 132931 814 397270 1.0100672 199.997502760507 3954 64 265786 547969634 97727693550380
112	4072874 125415 814 397270 1.0100672 199.997502760507 3954 1 3954 7819035 20613582605
124	4198289 10 0 0 0 0 1 1 1 1 1
127	4198299 592086 0 396989 0 199.8355658508 20824 0 7 20946 80642
128	4790385 314414 0 396987 0 199.8352558508 11072 0 2 6714 9074
129	5104799 1218 8211 199452 4.735155690365 94.585024709459 43 0 0 0 0
130	5106017 112 30228 30305 14.539399078191 14.541663136297 4 0 2 4 6
132	5106129 785076 0 397005 0 199.843086130534 27078 0 7 16994 73502
133	5891205 468510 0 397003 0 199.842936130534 16192 0 2 9264 11604
134	6359715 2002 29734 362141 14.417702743156 181.29096816422 69 0 0 0 0
135	6361717 112 79740 79790 38.219267398768 38.221291498342 4 0 2 4 6
137	6361829 520006 0 397299 0 199.999408097554 17726 0 7 23606 91990
138	6881835 253174 0 397298 0 199.999408097554 8604 0 2 5672 8416
139	7135009 862 79835 396475 38.223137597916 199.574927392442 29 0 0 0 0
144	7135871 10 0 0 0 0 1 1 1 1 1
147	7135881 1081170 0 397281 0 199.997801010184 37182 0 7 350 1390
148	8217051 712676 0 397280 0 199.997801010184 24492 0 2 12262 12298
149	8929727 3556 6353 396498 3.976739013338 199.585024332493 122 0 0.02 0.02 0.0004
150	8933283 70 0 92427 0 45 5 1 2 7 11
151	8933353 2599 170784 316710 80.0503792 159.050696 106 0 3 105 161
153	8935952 3073 557 384328 1.0000672 193.0503872 116 1 116 6786 527046
154	8939025 13889 812 386289 1.0100672 194.0503792 547 1 547 149878 54705470
155	8952914 3336 557 384328 1.0000672 193.0503872 116 64 17964 1019316 12535795656
156	8956250 15259 812 386289 1.0100672 194.0503792 547 64 140716 42869236 4418083298704
160	8971509 13889 812 386289 1.0100672 194.0503792 547 1 547 149878 54705470
165	8985398 1837 69 79151 0.09995410364 38.0520128 80 0 20 420 5360
167	8987235 126503 558 397220 1.0000672 199.973498268298 4016 1 4016 8066136 21598423496
168	9113738 713 29750 361690 14.427548352795 181.071324552534 24 1 24 300 4900
169	9114451 134536 558 397220 1.0000672 199.973498268298 4016 64 308034 685366888 1.4761749832439e+14
170	9248987 758 29750 361690 14.427548352795 181.071324552534 24 108 2228 26348 39448472
174	9249745 713 29750 361690 14.427548352795 181.071324552534 24 1 24 300 4900
179	9250458 1696 75 321088 0.118605855963 161.071344437038 72 0 21 458 6200
181	9252154 127516 559 397263 1.0000672 199.989109464541 4040 1 4040 8162820 21987916140
182	9379670 314 79488 391875 38.147581442271 197.071729475272 11 1 11 66 506
183	9379984 135291 559 397263 1.0000672 199.989109464541 4040 64 282492 591507324 1.1339608720991e+14
184	9515275 334 79488 391875 38.147581442271 197.071729475272 11 130 862 5580 3564480
188	9515609 314 79488 391875 38.147581442271 197.071729475272 11 1 11 66 506
193	9515923 236744 823 397224 1.0100672 199.983500268298 8080 0 506 310262 43115012
194	9752667 1911 875 79226 1.0102036 38.062477126952 78 0 16 315 3075
196	9754578 2459590 0 397232 0 199.983986086479 85182 0 7 221252 835772
197	12214168 729950 0 397230 0 199.983796086479 25290 0 2 24772 49028
198	12944118 140 39759 349399 18.06247789915 175.08284334997 5 0 0 0 0
199	12944258 713 29732 361664 14.417548352795 181.061324552534 24 1 24 300 4900
200	12944971 126515 816 397222 1.0100672 199.983498268298 4016 1 4016 8066136 21598423496
201	13071486 758 29732 361664 14.417548352795 181.061324552534 24 108 2228 26348 39448472
202	13072244 134548 816 397222 1.0100672 199.983498268298 4016 64 308034 685366888 1.4761749832439e+14
206	13206792 126515 816 397222 1.0100672 199.983498268298 4016 1 4016 8066136 21598423496
211	13333307 237825 824 397290 1.0100672 199.999111464541 8102 0 466 283354 27521620
212	13571132 4032 876 321130 1.0102036 161.081833637714 154 0 18 465 4453
214	13575164 2602668 0 397304 0 199.999537282722 89712 0 7 236710 890950
215	16177832 774450 0 397297 0 199.999407282722 26742 0 2 26550 52910
216	16952282 30 319528 319528 160.414780390491 160.414780390491 1 0 0 0 0
217	16952312 314 79457 391846 38.137581442271 197.061729475272 11 1 11 66 506
218	16952626 127528 817 397288 1.0100672 199.999109464541 4040 1 4040 8162820 21987916140
219	17080154 334 79457 391846 38.137581442271 197.061729475272 11 130 862 5580 3564480
220	17080488 135303 817 397288 1.0100672 199.999109464541 4040 64 282492 591507324 1.1339608720991e+14
224	17215791 127528 817 397288 1.0100672 199.999109464541 4040 1 4040 8162820 21987916140
229	17343319 10 0 0 0 0 1 1 1 1 1
230	17343329 2369 18942 363586 10.0205648 182.0201936 102 0 1 51 51
232	17345698 14773 560 386220 1.0000672 194.0202528 584 1 584 170820 66562860
233	17360471 3278 1460 363661 1.0200672 182.0602608 123 1 123 7626 627874
234	17363749 16277 560 386220 1.0000672 194.0202528 584 64 155244 50890464 5763383627752
235	17380026 3554 1460 363661 1.0200672 182.0602608 123 64 18942 1130286 14569645700
239	17383580 3278 1460 363661 1.0200672 182.0602608 123 1 123 7626 627874
246	17386858 3422 561 382330 1.0000672 192.0201936 127 1 127 8128 690880
247	17390280 14949 1462 386213 1.0200672 194.0201264 589 1 589 173755 68285715
248	17405229 3703 561 382330 1.0000672 192.0201936 127 64 19198 1174728 15394588376
249	17408932 16460 1462 386213 1.0200672 194.0201264 589 64 155564 51234096 5816810285824
253	17425392 14949 1462 386213 1.0200672 194.0201264 589 1 589 173755 68285715
256	17440341 121 14980 373047 8.0200768 187.0200768 5 1 5 15 55
257	17440462 111 14981 373048 8.02008 187.02008 5 1 5 15 55
258	17440573 75 133 133 0.233447027066 0.233447027066 3 1 1 3 3
259	17440648 50 88 3665 0.156140310969 2.528305054092 2 1 1 2 2
263	17440698 56 31451 80808 14.745541847733 38.425816661825 2 2 2 4 8
268	17440754 56 30852 80215 14.602466178096 38.282454550508 2 1 1 2 2
269	17440810 56 30889 80243 14.603828036003 38.283237600295 2 1 1 2 2
272	17440866 50 199 199 0.293585502868 0.293585502868 2 1 1 2 2
276	17440916 112 29891 80354 14.467916352795 38.312874138196 4 1 1 4 4
281	17441028 55 30546 80001 14.57060731999 38.250375650934 2 1 1 2 2
282	17441083 56 30560 80014 14.571670349043 38.251298700721 2 1 1 2 2
285	17441139 156 192 76813 0.289443216007 37.067218953871 6 1 1 6 6
286	17441295 56 29713 79438 14.417097889707 38.137097368842 2 1 1 2 2
287	17441351 632 30841 392274 14.602231205919 197.281823270926 22 1 1 22 22
290	17441983 56 30217 79729 14.539399078191 38.219267398768 2 1 1 2 2
291	17442039 55 31606 81007 14.80627855295 38.486639777489 2 1 1 2 2
292	17442094 112 30218 79732 14.539399078191 38.219267398768 4 1 1 4 4
293	17442206 112 30219 79733 14.539399078191 38.219267398768 4 1 1 4 4
296	17442318 111 30817 80606 14.601362067775 38.36350690561 4 1 1 4 4
297	17442429 112 30840 80512 14.602231205919 38.343880067565 4 1 1 4 4
298	17442541 51 255 4008 0.419663425534 2.746018912556 2 1 1 2 2
311	17442592 75 146 146 0.234158752695 0.234158752695 3 1 1 3 3
312	17442667 50 121 121 0.216189795476 0.216189795476 2 1 1 2 2
