file 17318565 1426511997                                        
version 2
run MCoA_ALL-0-20150316-14:19:50-16121
attr configname MCoA_ALL
attr datetime 20150316-14:19:50
attr experiment MCoA_ALL
attr inifile VoIPMCoACN.ini
attr iterationvars ""
attr iterationvars2 $repetition=0
attr measurement ""
attr network VoIPMCoAMulti
attr processid 16121
attr repetition 0
attr replication #0
attr resultdir results
attr runnumber 0
attr seedset 0

vector 0  VoIPMCoAMulti.Ra.networkLayer.ipv6  IPv6Active_Event  ETV
vector 51  VoIPMCoAMulti.CN[0].networkLayer.ipv6  IPv6Active_Event  ETV
vector 76  VoIPMCoAMulti.HA.networkLayer.ipv6  IPv6Active_Event  ETV
vector 133  VoIPMCoAMulti.MN[0].networkLayer.ipv6  IPv6Active_Event  ETV
vector 156  VoIPMCoAMulti.MN[1].networkLayer.ipv6  IPv6Active_Event  ETV
vector 162  VoIPMCoAMulti.R1.networkLayer.ipv6  IPv6Active_Event  ETV
vector 241  VoIPMCoAMulti.Rb.networkLayer.ipv6  IPv6Active_Event  ETV
vector 109  VoIPMCoAMulti.AP_HA.wlan.mac  RadioState  ETV
attr enum  "IDLE=0, RECV=1, SLEEP=3, TRANSMIT=2"
attr enumname  RadioState
vector 108  VoIPMCoAMulti.AP_HA.wlan.mac  State  ETV
attr enum  "BACKOFF=3, DEFER=1, IDLE=0, RECEIVE=8, WAITACK=4, WAITBROADCAST=5, WAITCTS=6, WAITDIFS=2, WAITSIFS=7"
attr enumname  Ieee80211Mac
vector 137  VoIPMCoAMulti.MN[0].wlan[0].mac  RadioState  ETV
attr enum  "IDLE=0, RECV=1, SLEEP=3, TRANSMIT=2"
attr enumname  RadioState
vector 136  VoIPMCoAMulti.MN[0].wlan[0].mac  State  ETV
attr enum  "BACKOFF=3, DEFER=1, IDLE=0, RECEIVE=8, WAITACK=4, WAITBROADCAST=5, WAITCTS=6, WAITDIFS=2, WAITSIFS=7"
attr enumname  Ieee80211Mac
vector 142  VoIPMCoAMulti.MN[0].wlan[1].mac  RadioState  ETV
attr enum  "IDLE=0, RECV=1, SLEEP=3, TRANSMIT=2"
attr enumname  RadioState
vector 141  VoIPMCoAMulti.MN[0].wlan[1].mac  State  ETV
attr enum  "BACKOFF=3, DEFER=1, IDLE=0, RECEIVE=8, WAITACK=4, WAITBROADCAST=5, WAITCTS=6, WAITDIFS=2, WAITSIFS=7"
attr enumname  Ieee80211Mac
vector 147  VoIPMCoAMulti.MN[0].wlan[2].mac  RadioState  ETV
attr enum  "IDLE=0, RECV=1, SLEEP=3, TRANSMIT=2"
attr enumname  RadioState
vector 146  VoIPMCoAMulti.MN[0].wlan[2].mac  State  ETV
attr enum  "BACKOFF=3, DEFER=1, IDLE=0, RECEIVE=8, WAITACK=4, WAITBROADCAST=5, WAITCTS=6, WAITDIFS=2, WAITSIFS=7"
attr enumname  Ieee80211Mac
vector 160  VoIPMCoAMulti.MN[1].wlan[0].mac  RadioState  ETV
attr enum  "IDLE=0, RECV=1, SLEEP=3, TRANSMIT=2"
attr enumname  RadioState
vector 159  VoIPMCoAMulti.MN[1].wlan[0].mac  State  ETV
attr enum  "BACKOFF=3, DEFER=1, IDLE=0, RECEIVE=8, WAITACK=4, WAITBROADCAST=5, WAITCTS=6, WAITDIFS=2, WAITSIFS=7"
attr enumname  Ieee80211Mac
vector 209  VoIPMCoAMulti.AP_1.wlan.mac  RadioState  ETV
attr enum  "IDLE=0, RECV=1, SLEEP=3, TRANSMIT=2"
attr enumname  RadioState
vector 208  VoIPMCoAMulti.AP_1.wlan.mac  State  ETV
attr enum  "BACKOFF=3, DEFER=1, IDLE=0, RECEIVE=8, WAITACK=4, WAITBROADCAST=5, WAITCTS=6, WAITDIFS=2, WAITSIFS=7"
attr enumname  Ieee80211Mac
vector 227  VoIPMCoAMulti.AP_2.wlan.mac  RadioState  ETV
attr enum  "IDLE=0, RECV=1, SLEEP=3, TRANSMIT=2"
attr enumname  RadioState
vector 226  VoIPMCoAMulti.AP_2.wlan.mac  State  ETV
attr enum  "BACKOFF=3, DEFER=1, IDLE=0, RECEIVE=8, WAITACK=4, WAITBROADCAST=5, WAITCTS=6, WAITDIFS=2, WAITSIFS=7"
attr enumname  Ieee80211Mac
vector 43  VoIPMCoAMulti.CN[0].udpApp[0]  "MCOA VIDEO Packet Sent"  ETV
vector 177  VoIPMCoAMulti.R1.eth[1].queue  "queue length"  ETV
vector 91  VoIPMCoAMulti.HA.eth[1].queue  "queue length"  ETV
vector 191  VoIPMCoAMulti.R1.eth[2].queue  "queue length"  ETV
vector 271  VoIPMCoAMulti.CN[0].networkLayer.neighbourDiscovery  "Starting DAD"  ETV
vector 324  VoIPMCoAMulti.Rb.networkLayer.neighbourDiscovery  "Starting DAD"  ETV
vector 270  VoIPMCoAMulti.Ra.networkLayer.neighbourDiscovery  "Starting DAD"  ETV
vector 323  VoIPMCoAMulti.R1.networkLayer.neighbourDiscovery  "Starting DAD"  ETV
vector 297  VoIPMCoAMulti.MN[0].networkLayer.neighbourDiscovery  "Starting DAD"  ETV
vector 284  VoIPMCoAMulti.HA.networkLayer.neighbourDiscovery  "Starting DAD"  ETV
vector 310  VoIPMCoAMulti.MN[1].networkLayer.neighbourDiscovery  "Starting DAD"  ETV
vector 3  VoIPMCoAMulti.Ra.eth[0].mac  framesSent  ETV
vector 5  VoIPMCoAMulti.Ra.eth[0].mac  bytesSent  ETV
vector 17  VoIPMCoAMulti.Ra.eth[1].mac  framesSent  ETV
vector 19  VoIPMCoAMulti.Ra.eth[1].mac  bytesSent  ETV
vector 31  VoIPMCoAMulti.Ra.eth[2].mac  framesSent  ETV
vector 33  VoIPMCoAMulti.Ra.eth[2].mac  bytesSent  ETV
vector 54  VoIPMCoAMulti.CN[0].eth[0].mac  framesSent  ETV
vector 56  VoIPMCoAMulti.CN[0].eth[0].mac  bytesSent  ETV
vector 79  VoIPMCoAMulti.HA.eth[0].mac  framesSent  ETV
vector 81  VoIPMCoAMulti.HA.eth[0].mac  bytesSent  ETV
vector 93  VoIPMCoAMulti.HA.eth[1].mac  framesSent  ETV
vector 95  VoIPMCoAMulti.HA.eth[1].mac  bytesSent  ETV
vector 165  VoIPMCoAMulti.R1.eth[0].mac  framesSent  ETV
vector 167  VoIPMCoAMulti.R1.eth[0].mac  bytesSent  ETV
vector 179  VoIPMCoAMulti.R1.eth[1].mac  framesSent  ETV
vector 181  VoIPMCoAMulti.R1.eth[1].mac  bytesSent  ETV
vector 193  VoIPMCoAMulti.R1.eth[2].mac  framesSent  ETV
vector 195  VoIPMCoAMulti.R1.eth[2].mac  bytesSent  ETV
vector 244  VoIPMCoAMulti.Rb.eth[0].mac  framesSent  ETV
vector 246  VoIPMCoAMulti.Rb.eth[0].mac  bytesSent  ETV
vector 258  VoIPMCoAMulti.Rb.eth[1].mac  framesSent  ETV
vector 260  VoIPMCoAMulti.Rb.eth[1].mac  bytesSent  ETV
vector 80  VoIPMCoAMulti.HA.eth[0].mac  framesReceivedOK  ETV
vector 82  VoIPMCoAMulti.HA.eth[0].mac  bytesReceivedOK  ETV
vector 86  VoIPMCoAMulti.HA.eth[0].mac  framesPassedToHL  ETV
vector 166  VoIPMCoAMulti.R1.eth[0].mac  framesReceivedOK  ETV
vector 168  VoIPMCoAMulti.R1.eth[0].mac  bytesReceivedOK  ETV
vector 172  VoIPMCoAMulti.R1.eth[0].mac  framesPassedToHL  ETV
vector 4  VoIPMCoAMulti.Ra.eth[0].mac  framesReceivedOK  ETV
vector 6  VoIPMCoAMulti.Ra.eth[0].mac  bytesReceivedOK  ETV
vector 10  VoIPMCoAMulti.Ra.eth[0].mac  framesPassedToHL  ETV
vector 112  VoIPMCoAMulti.AP_HA.eth[0]  framesReceivedOK  ETV
vector 114  VoIPMCoAMulti.AP_HA.eth[0]  bytesReceivedOK  ETV
vector 118  VoIPMCoAMulti.AP_HA.eth[0]  framesPassedToHL  ETV
vector 18  VoIPMCoAMulti.Ra.eth[1].mac  framesReceivedOK  ETV
vector 20  VoIPMCoAMulti.Ra.eth[1].mac  bytesReceivedOK  ETV
vector 24  VoIPMCoAMulti.Ra.eth[1].mac  framesPassedToHL  ETV
vector 212  VoIPMCoAMulti.AP_1.eth[0]  framesReceivedOK  ETV
vector 214  VoIPMCoAMulti.AP_1.eth[0]  bytesReceivedOK  ETV
vector 218  VoIPMCoAMulti.AP_1.eth[0]  framesPassedToHL  ETV
vector 230  VoIPMCoAMulti.AP_2.eth[0]  framesReceivedOK  ETV
vector 232  VoIPMCoAMulti.AP_2.eth[0]  bytesReceivedOK  ETV
vector 236  VoIPMCoAMulti.AP_2.eth[0]  framesPassedToHL  ETV
vector 105  VoIPMCoAMulti.AP_HA.relayUnit  "buffer level"  ETV
vector 205  VoIPMCoAMulti.AP_1.relayUnit  "buffer level"  ETV
vector 223  VoIPMCoAMulti.AP_2.relayUnit  "buffer level"  ETV
vector 106  VoIPMCoAMulti.AP_HA.wlan.mgmt  "queue length"  ETV
vector 206  VoIPMCoAMulti.AP_1.wlan.mgmt  "queue length"  ETV
vector 224  VoIPMCoAMulti.AP_2.wlan.mgmt  "queue length"  ETV
vector 245  VoIPMCoAMulti.Rb.eth[0].mac  framesReceivedOK  ETV
vector 247  VoIPMCoAMulti.Rb.eth[0].mac  bytesReceivedOK  ETV
vector 251  VoIPMCoAMulti.Rb.eth[0].mac  framesPassedToHL  ETV
vector 32  VoIPMCoAMulti.Ra.eth[2].mac  framesReceivedOK  ETV
vector 34  VoIPMCoAMulti.Ra.eth[2].mac  bytesReceivedOK  ETV
vector 38  VoIPMCoAMulti.Ra.eth[2].mac  framesPassedToHL  ETV
vector 259  VoIPMCoAMulti.Rb.eth[1].mac  framesReceivedOK  ETV
vector 261  VoIPMCoAMulti.Rb.eth[1].mac  bytesReceivedOK  ETV
vector 265  VoIPMCoAMulti.Rb.eth[1].mac  framesPassedToHL  ETV
vector 55  VoIPMCoAMulti.CN[0].eth[0].mac  framesReceivedOK  ETV
vector 57  VoIPMCoAMulti.CN[0].eth[0].mac  bytesReceivedOK  ETV
vector 61  VoIPMCoAMulti.CN[0].eth[0].mac  framesPassedToHL  ETV
vector 161  VoIPMCoAMulti.MN[1].wlan[0].radio  "MAC loss rate"  ETV
vector 111  VoIPMCoAMulti.AP_HA.eth[0]  framesSent  ETV
vector 113  VoIPMCoAMulti.AP_HA.eth[0]  bytesSent  ETV
vector 94  VoIPMCoAMulti.HA.eth[1].mac  framesReceivedOK  ETV
vector 96  VoIPMCoAMulti.HA.eth[1].mac  bytesReceivedOK  ETV
vector 100  VoIPMCoAMulti.HA.eth[1].mac  framesPassedToHL  ETV
vector 138  VoIPMCoAMulti.MN[0].wlan[0].radio  "MAC loss rate"  ETV
vector 52  VoIPMCoAMulti.CN[0].eth[0].queue  "queue length"  ETV
vector 268  VoIPMCoAMulti.Rb.eth[1].mac  collisions  ETV
vector 269  VoIPMCoAMulti.Rb.eth[1].mac  backoffs  ETV
vector 64  VoIPMCoAMulti.CN[0].eth[0].mac  collisions  ETV
vector 49  VoIPMCoAMulti.CN[0].pingApp  "PING: Ping Request"  ETV
vector 242  VoIPMCoAMulti.Rb.eth[0].queue  "queue length"  ETV
vector 1  VoIPMCoAMulti.Ra.eth[0].queue  "queue length"  ETV
vector 50  VoIPMCoAMulti.CN[0].pingApp  "PING: Ping Reply"  ETV
vector 47  VoIPMCoAMulti.CN[0].pingApp  pingRTT  ETV
vector 110  VoIPMCoAMulti.AP_HA.wlan.radio  "MAC loss rate"  ETV
vector 143  VoIPMCoAMulti.MN[0].wlan[1].radio  "MAC loss rate"  ETV
vector 298  VoIPMCoAMulti.MN[0].networkLayer.xMobileIPv6  "BU to HA"  ETV
vector 211  VoIPMCoAMulti.AP_1.eth[0]  framesSent  ETV
vector 213  VoIPMCoAMulti.AP_1.eth[0]  bytesSent  ETV
vector 180  VoIPMCoAMulti.R1.eth[1].mac  framesReceivedOK  ETV
vector 182  VoIPMCoAMulti.R1.eth[1].mac  bytesReceivedOK  ETV
vector 186  VoIPMCoAMulti.R1.eth[1].mac  framesPassedToHL  ETV
vector 288  VoIPMCoAMulti.HA.networkLayer.xMobileIPv6  "BA to MN"  ETV
vector 302  VoIPMCoAMulti.MN[0].networkLayer.xMobileIPv6  "BA from HA"  ETV
vector 304  VoIPMCoAMulti.MN[0].networkLayer.xMobileIPv6  "HoTI to CN"  ETV
vector 305  VoIPMCoAMulti.MN[0].networkLayer.xMobileIPv6  "CoTI to CN"  ETV
vector 139  VoIPMCoAMulti.MN[0].wlan[1].mgmt  "queue length"  ETV
vector 293  VoIPMCoAMulti.HA.networkLayer.xMobileIPv6  "HoT to MN"  ETV
vector 294  VoIPMCoAMulti.HA.networkLayer.xMobileIPv6  "CoT to MN"  ETV
vector 308  VoIPMCoAMulti.MN[0].networkLayer.xMobileIPv6  "HoT from CN"  ETV
vector 309  VoIPMCoAMulti.MN[0].networkLayer.xMobileIPv6  "CoT from CN"  ETV
vector 299  VoIPMCoAMulti.MN[0].networkLayer.xMobileIPv6  "BU to CN"  ETV
vector 280  VoIPMCoAMulti.CN[0].networkLayer.xMobileIPv6  "HoT to MN"  ETV
vector 281  VoIPMCoAMulti.CN[0].networkLayer.xMobileIPv6  "CoT to MN"  ETV
vector 275  VoIPMCoAMulti.CN[0].networkLayer.xMobileIPv6  "BA to MN"  ETV
vector 303  VoIPMCoAMulti.MN[0].networkLayer.xMobileIPv6  "BA from CN"  ETV
vector 15  VoIPMCoAMulti.Ra.eth[1].queue  "queue length"  ETV
vector 210  VoIPMCoAMulti.AP_1.wlan.radio  "MAC loss rate"  ETV
vector 48  VoIPMCoAMulti.CN[0].pingApp  pingDrop  ETV
vector 229  VoIPMCoAMulti.AP_2.eth[0]  framesSent  ETV
vector 231  VoIPMCoAMulti.AP_2.eth[0]  bytesSent  ETV
vector 194  VoIPMCoAMulti.R1.eth[2].mac  framesReceivedOK  ETV
vector 196  VoIPMCoAMulti.R1.eth[2].mac  bytesReceivedOK  ETV
vector 200  VoIPMCoAMulti.R1.eth[2].mac  framesPassedToHL  ETV
vector 144  VoIPMCoAMulti.MN[0].wlan[2].mgmt  "queue length"  ETV
vector 148  VoIPMCoAMulti.MN[0].wlan[2].radio  "MAC loss rate"  ETV
vector 228  VoIPMCoAMulti.AP_2.wlan.radio  "MAC loss rate"  ETV
vector 163  VoIPMCoAMulti.R1.eth[0].queue  "queue length"  ETV
0	10940 8 0 0 0 0 1 1 1 1 1
1	10948 252 19079 31443 10.0409536 15.0403216 12 0 1 6 6
3	11200 1525 555 90152 1.0000672 43.125236164023 68 1 68 2346 107134
4	12725 810 817 90182 1.0100672 43.145303364023 31 1 31 496 10416
5	13535 1706 555 90152 1.0000672 43.125236164023 68 64 19244 764892 10903325304
6	15241 870 817 90182 1.0100672 43.145303364023 31 64 3444 53262 126409972
10	16111 841 817 90182 1.0100672 43.145303364023 31 1 31 496 10416
15	16952 1965 34884 384073 16.0413616 194.04032 90 0 1 45 45
17	18917 13175 556 384077 1.0000672 194.0404464 540 1 540 146070 52633890
18	32092 2769 819 384133 1.0100672 194.0603872 110 1 110 6105 449735
19	34861 14521 556 384077 1.0000672 194.0404464 540 64 138462 41657752 4228311088536
20	49382 3020 819 384133 1.0100672 194.0603872 110 64 17160 913122 10656066380
24	52402 2769 819 384133 1.0100672 194.0603872 110 1 110 6105 449735
31	55171 2967 557 361395 1.0000672 182.0402608 117 1 117 6903 540735
32	58138 14190 1465 384064 1.0200672 194.0402528 584 1 584 170820 66562860
33	72328 3231 557 361395 1.0000672 182.0402608 117 64 18118 1016242 12437926460
34	75559 15694 1465 384064 1.0200672 194.0402528 584 64 155220 50879328 5761020984040
38	91253 14190 1465 384064 1.0200672 194.0402528 584 1 584 170820 66562860
43	105443 3300 2 120602 0 55 201 1 201 20301 2727101
47	108743 850 19734 344648 10.225639615758 173.121694353175 21 0.121694350699 0.225639615758 2.696764115322 0.35627429751317
48	109593 58 51841 334356 25.124595630883 168.121694364908 2 5 143 148 20474
49	109651 3092 18797 383991 10 194 185 0 184 17020 2093460
50	112743 595 19734 344648 10.225639615758 173.121694353175 21 0 163 1093 156319
51	113338 9 0 0 0 0 1 1 1 1 1
52	113347 12406 14921 370882 8 187.0000672 666 0 6 1395 4549
54	125753 14483 558 384000 1.0000672 194.0001264 594 1 594 176715 70038045
55	140236 3109 1467 380220 1.0200672 192.0401936 121 1 121 7381 597861
56	143345 16010 558 384000 1.0000672 194.0001264 594 64 156558 52122256 5960408657112
57	159355 3379 1467 380220 1.0200672 192.0401936 121 64 18374 1058448 13185585680
61	162734 3109 1467 380220 1.0200672 192.0401936 121 1 121 7381 597861
64	165843 116 15001 370971 8.0400768 187.0400768 5 1 5 15 55
76	165959 37 0 72395 0 35 3 1 2 4 6
79	165996 841 559 90168 1.0000672 43.135303364023 31 1 31 496 10416
80	166837 1594 815 90159 1.0100672 43.135236164023 68 1 68 2346 107134
81	168431 901 559 90168 1.0000672 43.135303364023 31 64 3444 53262 126409972
82	169332 1775 815 90159 1.0100672 43.135236164023 68 64 19244 764892 10903325304
86	171107 1594 815 90159 1.0100672 43.135236164023 68 1 68 2346 107134
91	172701 1379 76 31492 0.115677423169 15.0504288 62 0 19 375 4595
93	174080 121461 560 395016 1.0000672 199.945456768185 3957 1 3957 7830903 20660532415
94	295541 657 6904 63687 4.132146639142 30.074345590319 24 1 24 300 4900
95	296198 129009 560 395016 1.0000672 199.945456768185 3957 64 267640 554740264 99753846434152
96	425207 698 6904 63687 4.132146639142 30.074345590319 24 40 2080 21756 29306448
100	425905 681 6904 63687 4.132146639142 30.074345590319 24 1 24 300 4900
105	426586 234699 825 395032 1.0100672 199.955458768185 7962 0 466 269720 23926000
106	661285 1099 878 28961 1.0102036 14.062537769033 46 0 16 293 3119
108	662384 2449460 0 395100 0 199.985113900997 84228 0 7 217362 822102
109	3111844 713060 0 395091 0 199.985023900997 24546 0 2 24330 48446
110	3824904 63 22756 119696 11.560837489275 54.636109768008 2 0.02 0.02 0.04 0.0008
111	3824967 681 6863 63663 4.122146639142 30.064345590319 24 1 24 300 4900
112	3825648 125429 818 395030 1.0100672 199.955456768185 3957 1 3957 7830903 20660532415
113	3951077 722 6863 63663 4.122146639142 30.064345590319 24 40 2080 21756 29306448
114	3951799 132977 818 395030 1.0100672 199.955456768185 3957 64 267640 554740264 99753846434152
118	4084776 125429 818 395030 1.0100672 199.955456768185 3957 1 3957 7830903 20660532415
133	4210205 10 0 0 0 0 1 1 1 1 1
136	4210215 584738 0 395104 0 199.985645823628 20344 0 7 22118 85306
137	4794953 302572 0 395102 0 199.985295823628 10608 0 2 6554 9054
138	5097525 1132 8215 191066 4.735155690365 90.585024715652 40 0 0 0 0
139	5098657 112 32234 32295 15.185281346413 15.187505317743 4 0 2 4 6
141	5098769 708486 0 394751 0 199.793306131669 24522 0 7 19136 81420
142	5807255 407298 0 394749 0 199.792936131669 14116 0 2 8346 10926
143	6214553 1645 29830 343135 14.463540774135 172.408684763894 57 0 0 0 0
144	6216198 112 80181 80231 38.187171728567 38.189175828141 4 0 2 4 6
146	6216310 552658 0 395079 0 199.982857242986 18854 0 7 23050 90882
147	6768968 278652 0 395078 0 199.982857242986 9484 0 2 6108 8844
148	7047620 976 80230 392829 38.189175828141 198.778991239042 33 0 0 0 0
156	7048596 10 0 0 0 0 1 1 1 1 1
159	7048606 1087278 0 395093 0 199.985024332493 37412 0 7 648 2288
160	8135884 715776 0 395092 0 199.985024332493 24608 0 2 12330 12382
161	8851660 3552 6357 392965 3.976739013338 198.862338284274 122 0 0 0 0
162	8855212 70 0 92770 0 45 5 1 2 7 11
163	8855282 2697 170619 316164 80.0503792 159.050696 110 0 3 111 175
165	8857979 2879 561 384123 1.0000672 194.0503872 110 1 110 6105 449735
166	8860858 13715 816 384124 1.0100672 194.0504464 540 1 540 146070 52633890
167	8874573 3130 561 384123 1.0000672 194.0503872 110 64 17160 913122 10656066380
168	8877703 15061 816 384124 1.0100672 194.0504464 540 64 138462 41657752 4228311088536
172	8892764 13715 816 384124 1.0100672 194.0504464 540 1 540 146070 52633890
177	8906479 1740 73 79574 0.09995410364 38.0520128 76 0 20 418 5358
179	8908219 126221 562 394996 1.0000672 199.941625793691 4004 1 4004 8018010 21405414030
180	9034440 498 31734 344531 15.073430686099 173.072019426296 17 1 17 153 1785
181	9034938 134220 562 394996 1.0000672 199.941625793691 4004 64 305460 675400048 1.4410458557398e+14
182	9169158 529 31734 344531 15.073430686099 173.072019426296 17 108 1492 12808 12961384
186	9169687 498 31734 344531 15.073430686099 173.072019426296 17 1 17 153 1785
191	9170185 1632 79 163203 0.118605855963 76.0504464 70 0 21 455 6195
193	9171817 127889 563 395065 1.0000672 199.972558962083 4054 1 4054 8219485 22217267955
194	9299706 311 79854 386142 38.115034564023 195.07144902532 11 1 11 66 506
195	9300017 135692 563 395065 1.0000672 199.972558962083 4054 64 283388 595498900 1.1451311274592e+14
196	9435709 331 79854 386142 38.115034564023 195.07144902532 11 130 862 5580 3564480
200	9436040 311 79854 386142 38.115034564023 195.07144902532 11 1 11 66 506
205	9436351 235811 827 395020 1.0100672 199.951627793691 8042 0 466 306952 42031176
206	9672162 1969 879 108398 1.0102036 50.562954028655 80 0 16 316 3076
208	9674131 2456456 0 395028 0 199.952013611872 85044 0 7 221110 834910
209	12130587 728288 0 395026 0 199.951923611872 25222 0 2 24734 48982
210	12858875 113 42338 109823 19.062477839028 51.063396293764 4 0 0 0 0
211	12858988 498 31665 344455 15.063430686099 173.062019426296 17 1 17 153 1785
212	12859486 126236 820 395018 1.0100672 199.951625793691 4004 1 4004 8018010 21405414030
213	12985722 529 31665 344455 15.063430686099 173.062019426296 17 108 1492 12808 12961384
214	12986251 134235 820 395018 1.0100672 199.951625793691 4004 64 305460 675400048 1.4410458557398e+14
218	13120486 126236 820 395018 1.0100672 199.951625793691 4004 1 4004 8018010 21405414030
223	13246722 238499 828 395070 1.0100672 199.982560962083 8130 0 466 284250 27578964
224	13485221 3723 880 163331 1.0102036 76.085885127267 144 0 18 438 4396
226	13488944 2574980 0 395084 0 199.982946780264 88780 0 7 233354 879078
227	16063924 764042 0 395077 0 199.982856780264 26390 0 2 26152 52068
228	16827966 58 98760 351987 47.062935715688 177.061120366622 2 0 0 0 0
229	16828024 311 79817 386074 38.105034564023 195.06144902532 11 1 11 66 506
230	16828335 127903 821 395068 1.0100672 199.982558962083 4054 1 4054 8219485 22217267955
231	16956238 331 79817 386074 38.105034564023 195.06144902532 11 130 862 5580 3564480
232	16956569 135706 821 395068 1.0100672 199.982558962083 4054 64 283388 595498900 1.1451311274592e+14
236	17092275 127903 821 395068 1.0100672 199.982558962083 4054 1 4054 8219485 22217267955
241	17220178 10 0 0 0 0 1 1 1 1 1
242	17220188 2368 19043 361379 10.0205648 182.0201936 102 0 1 51 51
244	17222556 14773 564 384017 1.0000672 194.0202528 584 1 584 170820 66562860
245	17237329 3085 1464 361444 1.0200672 182.0602608 117 1 117 6903 540735
246	17240414 16277 564 384017 1.0000672 194.0202528 584 64 155220 50879328 5761020984040
247	17256691 3349 1464 361444 1.0200672 182.0602608 117 64 18118 1016242 12437926460
251	17260040 3085 1464 361444 1.0200672 182.0602608 117 1 117 6903 540735
258	17263125 3229 565 380208 1.0000672 192.0201936 121 1 121 7381 597861
259	17266354 14948 1466 384010 1.0200672 194.0201264 589 1 589 173755 68285715
260	17281302 3499 565 380208 1.0000672 192.0201936 121 64 18374 1058448 13185585680
261	17284801 16459 1466 384010 1.0200672 194.0201264 589 64 155540 51222738 5814407409508
265	17301260 14948 1466 384010 1.0200672 194.0201264 589 1 589 173755 68285715
268	17316208 121 14984 370931 8.0200768 187.0200768 5 1 5 15 55
269	17316329 111 14985 370932 8.02008 187.02008 5 1 5 15 55
270	17316440 75 137 137 0.233447027066 0.233447027066 3 1 1 3 3
271	17316515 50 92 3669 0.156140310969 2.528305054092 2 1 1 2 2
275	17316565 56 33269 81184 15.392059751358 38.393001003932 2 2 2 4 8
280	17316621 56 32668 80590 15.248348337848 38.249998880307 2 1 1 2 2
281	17316677 56 32701 80622 15.249511323513 38.250741930094 2 1 1 2 2
284	17316733 50 203 203 0.293585502868 0.293585502868 2 1 1 2 2
288	17316783 111 31890 80749 15.113798686099 38.28093476506 4 1 1 4 4
293	17316894 56 32450 80406 15.216509566518 38.218239980733 2 1 1 2 2
294	17316950 55 32463 80419 15.217512552183 38.21918303052 2 1 1 2 2
297	17317005 157 196 77216 0.289443216007 37.061104564668 6 1 1 6 6
298	17317162 56 31632 79798 15.062980244718 38.104550490594 2 1 1 2 2
299	17317218 613 32653 390103 15.24807339047 197.24974389779 22 1 1 22 22
302	17317831 56 32223 80170 15.185281346413 38.187171728567 2 1 1 2 2
303	17317887 56 33433 81347 15.452796434923 38.453824119596 2 1 1 2 2
304	17317943 112 32224 80173 15.185281346413 38.187171728567 4 1 1 4 4
305	17318055 112 32225 80174 15.185281346413 38.187171728567 4 1 1 4 4
308	17318167 112 32605 80976 15.247264295714 38.331051238486 4 1 1 4 4
309	17318279 110 32652 80908 15.24807339047 38.311384397364 4 1 1 4 4
310	17318389 51 259 4012 0.419663425534 2.746018912556 2 1 1 2 2
323	17318440 75 150 150 0.234158752695 0.234158752695 3 1 1 3 3
324	17318515 50 125 125 0.216189795476 0.216189795476 2 1 1 2 2
