file 16853826 1425564990                                        
version 2
run MCoA_ALL-0-20150305-15:16:19-11180
attr configname MCoA_ALL
attr datetime 20150305-15:16:19
attr experiment MCoA_ALL
attr inifile VoIPMCoACN.ini
attr iterationvars ""
attr iterationvars2 $repetition=0
attr measurement ""
attr network VoIPMCoAMulti
attr processid 11180
attr repetition 0
attr replication #0
attr resultdir results
attr runnumber 0
attr seedset 0

vector 0  VoIPMCoAMulti.Ra.networkLayer.ipv6  IPv6Active_Event  ETV
vector 48  VoIPMCoAMulti.CN[0].networkLayer.ipv6  IPv6Active_Event  ETV
vector 63  VoIPMCoAMulti.HA.networkLayer.ipv6  IPv6Active_Event  ETV
vector 117  VoIPMCoAMulti.MN[0].networkLayer.ipv6  IPv6Active_Event  ETV
vector 137  VoIPMCoAMulti.MN[1].networkLayer.ipv6  IPv6Active_Event  ETV
vector 143  VoIPMCoAMulti.R1.networkLayer.ipv6  IPv6Active_Event  ETV
vector 222  VoIPMCoAMulti.Rb.networkLayer.ipv6  IPv6Active_Event  ETV
vector 96  VoIPMCoAMulti.AP_HA.wlan.mac  RadioState  ETV
attr enum  "IDLE=0, RECV=1, SLEEP=3, TRANSMIT=2"
attr enumname  RadioState
vector 95  VoIPMCoAMulti.AP_HA.wlan.mac  State  ETV
attr enum  "BACKOFF=3, DEFER=1, IDLE=0, RECEIVE=8, WAITACK=4, WAITBROADCAST=5, WAITCTS=6, WAITDIFS=2, WAITSIFS=7"
attr enumname  Ieee80211Mac
vector 121  VoIPMCoAMulti.MN[0].wlan[0].mac  RadioState  ETV
attr enum  "IDLE=0, RECV=1, SLEEP=3, TRANSMIT=2"
attr enumname  RadioState
vector 120  VoIPMCoAMulti.MN[0].wlan[0].mac  State  ETV
attr enum  "BACKOFF=3, DEFER=1, IDLE=0, RECEIVE=8, WAITACK=4, WAITBROADCAST=5, WAITCTS=6, WAITDIFS=2, WAITSIFS=7"
attr enumname  Ieee80211Mac
vector 126  VoIPMCoAMulti.MN[0].wlan[1].mac  RadioState  ETV
attr enum  "IDLE=0, RECV=1, SLEEP=3, TRANSMIT=2"
attr enumname  RadioState
vector 125  VoIPMCoAMulti.MN[0].wlan[1].mac  State  ETV
attr enum  "BACKOFF=3, DEFER=1, IDLE=0, RECEIVE=8, WAITACK=4, WAITBROADCAST=5, WAITCTS=6, WAITDIFS=2, WAITSIFS=7"
attr enumname  Ieee80211Mac
vector 131  VoIPMCoAMulti.MN[0].wlan[2].mac  RadioState  ETV
attr enum  "IDLE=0, RECV=1, SLEEP=3, TRANSMIT=2"
attr enumname  RadioState
vector 130  VoIPMCoAMulti.MN[0].wlan[2].mac  State  ETV
attr enum  "BACKOFF=3, DEFER=1, IDLE=0, RECEIVE=8, WAITACK=4, WAITBROADCAST=5, WAITCTS=6, WAITDIFS=2, WAITSIFS=7"
attr enumname  Ieee80211Mac
vector 141  VoIPMCoAMulti.MN[1].wlan[0].mac  RadioState  ETV
attr enum  "IDLE=0, RECV=1, SLEEP=3, TRANSMIT=2"
attr enumname  RadioState
vector 140  VoIPMCoAMulti.MN[1].wlan[0].mac  State  ETV
attr enum  "BACKOFF=3, DEFER=1, IDLE=0, RECEIVE=8, WAITACK=4, WAITBROADCAST=5, WAITCTS=6, WAITDIFS=2, WAITSIFS=7"
attr enumname  Ieee80211Mac
vector 190  VoIPMCoAMulti.AP_1.wlan.mac  RadioState  ETV
attr enum  "IDLE=0, RECV=1, SLEEP=3, TRANSMIT=2"
attr enumname  RadioState
vector 189  VoIPMCoAMulti.AP_1.wlan.mac  State  ETV
attr enum  "BACKOFF=3, DEFER=1, IDLE=0, RECEIVE=8, WAITACK=4, WAITBROADCAST=5, WAITCTS=6, WAITDIFS=2, WAITSIFS=7"
attr enumname  Ieee80211Mac
vector 208  VoIPMCoAMulti.AP_2.wlan.mac  RadioState  ETV
attr enum  "IDLE=0, RECV=1, SLEEP=3, TRANSMIT=2"
attr enumname  RadioState
vector 207  VoIPMCoAMulti.AP_2.wlan.mac  State  ETV
attr enum  "BACKOFF=3, DEFER=1, IDLE=0, RECEIVE=8, WAITACK=4, WAITBROADCAST=5, WAITCTS=6, WAITDIFS=2, WAITSIFS=7"
attr enumname  Ieee80211Mac
vector 43  VoIPMCoAMulti.CN[0].udpApp[0]  "MCOA VIDEO Packet Sent"  ETV
vector 305  VoIPMCoAMulti.Rb.networkLayer.neighbourDiscovery  "Starting DAD"  ETV
vector 172  VoIPMCoAMulti.R1.eth[2].queue  "queue length"  ETV
vector 78  VoIPMCoAMulti.HA.eth[1].queue  "queue length"  ETV
vector 158  VoIPMCoAMulti.R1.eth[1].queue  "queue length"  ETV
vector 304  VoIPMCoAMulti.R1.networkLayer.neighbourDiscovery  "Starting DAD"  ETV
vector 265  VoIPMCoAMulti.HA.networkLayer.neighbourDiscovery  "Starting DAD"  ETV
vector 251  VoIPMCoAMulti.Ra.networkLayer.neighbourDiscovery  "Starting DAD"  ETV
vector 291  VoIPMCoAMulti.MN[1].networkLayer.neighbourDiscovery  "Starting DAD"  ETV
vector 252  VoIPMCoAMulti.CN[0].networkLayer.neighbourDiscovery  "Starting DAD"  ETV
vector 278  VoIPMCoAMulti.MN[0].networkLayer.neighbourDiscovery  "Starting DAD"  ETV
vector 3  VoIPMCoAMulti.Ra.eth[0].mac  framesSent  ETV
vector 5  VoIPMCoAMulti.Ra.eth[0].mac  bytesSent  ETV
vector 17  VoIPMCoAMulti.Ra.eth[1].mac  framesSent  ETV
vector 19  VoIPMCoAMulti.Ra.eth[1].mac  bytesSent  ETV
vector 31  VoIPMCoAMulti.Ra.eth[2].mac  framesSent  ETV
vector 33  VoIPMCoAMulti.Ra.eth[2].mac  bytesSent  ETV
vector 51  VoIPMCoAMulti.CN[0].eth[0].mac  framesSent  ETV
vector 53  VoIPMCoAMulti.CN[0].eth[0].mac  bytesSent  ETV
vector 66  VoIPMCoAMulti.HA.eth[0].mac  framesSent  ETV
vector 68  VoIPMCoAMulti.HA.eth[0].mac  bytesSent  ETV
vector 80  VoIPMCoAMulti.HA.eth[1].mac  framesSent  ETV
vector 82  VoIPMCoAMulti.HA.eth[1].mac  bytesSent  ETV
vector 146  VoIPMCoAMulti.R1.eth[0].mac  framesSent  ETV
vector 148  VoIPMCoAMulti.R1.eth[0].mac  bytesSent  ETV
vector 160  VoIPMCoAMulti.R1.eth[1].mac  framesSent  ETV
vector 162  VoIPMCoAMulti.R1.eth[1].mac  bytesSent  ETV
vector 174  VoIPMCoAMulti.R1.eth[2].mac  framesSent  ETV
vector 176  VoIPMCoAMulti.R1.eth[2].mac  bytesSent  ETV
vector 225  VoIPMCoAMulti.Rb.eth[0].mac  framesSent  ETV
vector 227  VoIPMCoAMulti.Rb.eth[0].mac  bytesSent  ETV
vector 239  VoIPMCoAMulti.Rb.eth[1].mac  framesSent  ETV
vector 241  VoIPMCoAMulti.Rb.eth[1].mac  bytesSent  ETV
vector 67  VoIPMCoAMulti.HA.eth[0].mac  framesReceivedOK  ETV
vector 69  VoIPMCoAMulti.HA.eth[0].mac  bytesReceivedOK  ETV
vector 73  VoIPMCoAMulti.HA.eth[0].mac  framesPassedToHL  ETV
vector 147  VoIPMCoAMulti.R1.eth[0].mac  framesReceivedOK  ETV
vector 149  VoIPMCoAMulti.R1.eth[0].mac  bytesReceivedOK  ETV
vector 153  VoIPMCoAMulti.R1.eth[0].mac  framesPassedToHL  ETV
vector 4  VoIPMCoAMulti.Ra.eth[0].mac  framesReceivedOK  ETV
vector 6  VoIPMCoAMulti.Ra.eth[0].mac  bytesReceivedOK  ETV
vector 10  VoIPMCoAMulti.Ra.eth[0].mac  framesPassedToHL  ETV
vector 99  VoIPMCoAMulti.AP_HA.eth[0]  framesReceivedOK  ETV
vector 101  VoIPMCoAMulti.AP_HA.eth[0]  bytesReceivedOK  ETV
vector 105  VoIPMCoAMulti.AP_HA.eth[0]  framesPassedToHL  ETV
vector 18  VoIPMCoAMulti.Ra.eth[1].mac  framesReceivedOK  ETV
vector 20  VoIPMCoAMulti.Ra.eth[1].mac  bytesReceivedOK  ETV
vector 24  VoIPMCoAMulti.Ra.eth[1].mac  framesPassedToHL  ETV
vector 193  VoIPMCoAMulti.AP_1.eth[0]  framesReceivedOK  ETV
vector 195  VoIPMCoAMulti.AP_1.eth[0]  bytesReceivedOK  ETV
vector 199  VoIPMCoAMulti.AP_1.eth[0]  framesPassedToHL  ETV
vector 211  VoIPMCoAMulti.AP_2.eth[0]  framesReceivedOK  ETV
vector 213  VoIPMCoAMulti.AP_2.eth[0]  bytesReceivedOK  ETV
vector 217  VoIPMCoAMulti.AP_2.eth[0]  framesPassedToHL  ETV
vector 92  VoIPMCoAMulti.AP_HA.relayUnit  "buffer level"  ETV
vector 186  VoIPMCoAMulti.AP_1.relayUnit  "buffer level"  ETV
vector 204  VoIPMCoAMulti.AP_2.relayUnit  "buffer level"  ETV
vector 93  VoIPMCoAMulti.AP_HA.wlan.mgmt  "queue length"  ETV
vector 187  VoIPMCoAMulti.AP_1.wlan.mgmt  "queue length"  ETV
vector 205  VoIPMCoAMulti.AP_2.wlan.mgmt  "queue length"  ETV
vector 226  VoIPMCoAMulti.Rb.eth[0].mac  framesReceivedOK  ETV
vector 228  VoIPMCoAMulti.Rb.eth[0].mac  bytesReceivedOK  ETV
vector 232  VoIPMCoAMulti.Rb.eth[0].mac  framesPassedToHL  ETV
vector 32  VoIPMCoAMulti.Ra.eth[2].mac  framesReceivedOK  ETV
vector 34  VoIPMCoAMulti.Ra.eth[2].mac  bytesReceivedOK  ETV
vector 38  VoIPMCoAMulti.Ra.eth[2].mac  framesPassedToHL  ETV
vector 240  VoIPMCoAMulti.Rb.eth[1].mac  framesReceivedOK  ETV
vector 242  VoIPMCoAMulti.Rb.eth[1].mac  bytesReceivedOK  ETV
vector 246  VoIPMCoAMulti.Rb.eth[1].mac  framesPassedToHL  ETV
vector 52  VoIPMCoAMulti.CN[0].eth[0].mac  framesReceivedOK  ETV
vector 54  VoIPMCoAMulti.CN[0].eth[0].mac  bytesReceivedOK  ETV
vector 58  VoIPMCoAMulti.CN[0].eth[0].mac  framesPassedToHL  ETV
vector 98  VoIPMCoAMulti.AP_HA.eth[0]  framesSent  ETV
vector 100  VoIPMCoAMulti.AP_HA.eth[0]  bytesSent  ETV
vector 81  VoIPMCoAMulti.HA.eth[1].mac  framesReceivedOK  ETV
vector 83  VoIPMCoAMulti.HA.eth[1].mac  bytesReceivedOK  ETV
vector 87  VoIPMCoAMulti.HA.eth[1].mac  framesPassedToHL  ETV
vector 110  VoIPMCoAMulti.MN[0].udpApp[0]  "MCOA VIDEO Packet Rcv"  ETV
vector 112  VoIPMCoAMulti.MN[0].udpApp[0]  "MCOA VIDEO Delay"  ETV
vector 111  VoIPMCoAMulti.MN[0].udpApp[0]  "MCOA VIDEO Packet Lost"  ETV
vector 122  VoIPMCoAMulti.MN[0].wlan[0].radio  "MAC loss rate"  ETV
vector 142  VoIPMCoAMulti.MN[1].wlan[0].radio  "MAC loss rate"  ETV
vector 49  VoIPMCoAMulti.CN[0].eth[0].queue  "queue length"  ETV
vector 249  VoIPMCoAMulti.Rb.eth[1].mac  collisions  ETV
vector 250  VoIPMCoAMulti.Rb.eth[1].mac  backoffs  ETV
vector 61  VoIPMCoAMulti.CN[0].eth[0].mac  collisions  ETV
vector 46  VoIPMCoAMulti.CN[0].pingApp  "PING: Ping Request"  ETV
vector 47  VoIPMCoAMulti.CN[0].pingApp  "PING: Ping Reply"  ETV
vector 44  VoIPMCoAMulti.CN[0].pingApp  pingRTT  ETV
vector 97  VoIPMCoAMulti.AP_HA.wlan.radio  "MAC loss rate"  ETV
vector 279  VoIPMCoAMulti.MN[0].networkLayer.xMobileIPv6  "BU to HA"  ETV
vector 192  VoIPMCoAMulti.AP_1.eth[0]  framesSent  ETV
vector 194  VoIPMCoAMulti.AP_1.eth[0]  bytesSent  ETV
vector 161  VoIPMCoAMulti.R1.eth[1].mac  framesReceivedOK  ETV
vector 163  VoIPMCoAMulti.R1.eth[1].mac  bytesReceivedOK  ETV
vector 167  VoIPMCoAMulti.R1.eth[1].mac  framesPassedToHL  ETV
vector 127  VoIPMCoAMulti.MN[0].wlan[1].radio  "MAC loss rate"  ETV
vector 45  VoIPMCoAMulti.CN[0].pingApp  pingDrop  ETV
vector 223  VoIPMCoAMulti.Rb.eth[0].queue  "queue length"  ETV
vector 64  VoIPMCoAMulti.HA.eth[0].queue  "queue length"  ETV
vector 29  VoIPMCoAMulti.Ra.eth[2].queue  "queue length"  ETV
vector 237  VoIPMCoAMulti.Rb.eth[1].queue  "queue length"  ETV
vector 132  VoIPMCoAMulti.MN[0].wlan[2].radio  "MAC loss rate"  ETV
vector 210  VoIPMCoAMulti.AP_2.eth[0]  framesSent  ETV
vector 212  VoIPMCoAMulti.AP_2.eth[0]  bytesSent  ETV
vector 175  VoIPMCoAMulti.R1.eth[2].mac  framesReceivedOK  ETV
vector 177  VoIPMCoAMulti.R1.eth[2].mac  bytesReceivedOK  ETV
vector 181  VoIPMCoAMulti.R1.eth[2].mac  framesPassedToHL  ETV
vector 269  VoIPMCoAMulti.HA.networkLayer.xMobileIPv6  "BA to MN"  ETV
vector 283  VoIPMCoAMulti.MN[0].networkLayer.xMobileIPv6  "BA from HA"  ETV
vector 285  VoIPMCoAMulti.MN[0].networkLayer.xMobileIPv6  "HoTI to CN"  ETV
vector 286  VoIPMCoAMulti.MN[0].networkLayer.xMobileIPv6  "CoTI to CN"  ETV
vector 128  VoIPMCoAMulti.MN[0].wlan[2].mgmt  "queue length"  ETV
vector 261  VoIPMCoAMulti.CN[0].networkLayer.xMobileIPv6  "HoT to MN"  ETV
vector 262  VoIPMCoAMulti.CN[0].networkLayer.xMobileIPv6  "CoT to MN"  ETV
vector 290  VoIPMCoAMulti.MN[0].networkLayer.xMobileIPv6  "CoT from CN"  ETV
vector 289  VoIPMCoAMulti.MN[0].networkLayer.xMobileIPv6  "HoT from CN"  ETV
vector 280  VoIPMCoAMulti.MN[0].networkLayer.xMobileIPv6  "BU to CN"  ETV
vector 256  VoIPMCoAMulti.CN[0].networkLayer.xMobileIPv6  "BA to MN"  ETV
vector 284  VoIPMCoAMulti.MN[0].networkLayer.xMobileIPv6  "BA from CN"  ETV
vector 191  VoIPMCoAMulti.AP_1.wlan.radio  "MAC loss rate"  ETV
vector 15  VoIPMCoAMulti.Ra.eth[1].queue  "queue length"  ETV
0	10933 8 0 0 0 0 1 1 1 1 1
3	10941 8059 547 380513 1.0000672 196.081458877707 342 1 342 58653 13392435
4	19000 6853 811 380498 1.0100672 196.081391677707 279 1 279 39060 7278180
5	25853 8869 547 380513 1.0000672 196.081458877707 342 64 105202 20043104 1533869517304
6	34722 7464 811 380498 1.0100672 196.081391677707 279 64 80568 12325002 743636040892
10	42186 7132 811 380498 1.0100672 196.081391677707 279 1 279 39060 7278180
15	49318 46 339288 339291 176.0402528 176.04032 2 0 1 1 1
17	49364 1934 548 376467 1.0000672 194.0403792 74 1 74 2775 137825
18	51298 636 813 339379 1.0100672 176.0603872 22 1 22 253 3795
19	51934 2081 548 376467 1.0000672 194.0403792 74 64 9804 357484 2353000128
20	54015 678 813 339379 1.0100672 176.0603872 22 64 2296 25392 39878912
24	54693 636 813 339379 1.0100672 176.0603872 22 1 22 253 3795
29	55329 1771 82596 192482 45.0614416 102.0618624 78 0 2 41 43
31	57100 7264 549 380514 1.0000672 196.081514877707 286 1 286 41041 7838831
32	64364 9963 1458 380597 1.0200672 196.121582077707 401 1 401 80601 21574201
33	74327 7889 549 380514 1.0000672 196.081514877707 286 64 80956 12873976 786725410872
34	82216 10950 1458 380597 1.0200672 196.121582077707 401 64 113098 26491110 2238858118932
38	93166 9963 1458 380597 1.0200672 196.121582077707 401 1 401 80601 21574201
43	103129 3346 2 187800 0 99.5 200 1 200 20100 2686700
44	106475 1840 18907 376720 10.222421554538 194.121694091128 45 0.121694077707 1.142784526999 6.630105745189 2.0005292027967
45	108315 88 65596 364340 35.122079896108 188.12169409629 3 5 140 284 38946
46	108403 3085 18184 376382 10 194 185 0 184 17020 2093460
47	111488 1318 18907 376720 10.222421554538 194.121694091128 45 0 184 4338 712666
48	112806 9 0 0 0 0 1 1 1 1 1
49	112815 3562 15298 362066 8.5 187.0000672 192 0 2 98 100
51	116377 10155 550 380610 1.0000672 196.121705277707 412 1 412 85078 23396450
52	126532 7425 1460 380601 1.0200672 196.121638077707 289 1 289 41905 8087665
53	133957 11173 550 380610 1.0000672 196.121705277707 412 64 115256 27567648 2373916075208
54	145130 8054 1460 380601 1.0200672 196.121638077707 289 64 81148 12942638 792734138372
58	153184 7425 1460 380601 1.0200672 196.121638077707 289 1 289 41905 8087665
61	160609 159 15385 362169 8.5400768 187.0400768 7 1 7 28 140
63	160768 37 0 65191 0 35 3 1 2 4 6
64	160805 8166 82472 267030 45.0503216 141.0506 356 0 8 1238 6342
66	168971 7132 551 380471 1.0000672 196.071391677707 279 1 279 39060 7278180
67	176103 8401 809 380552 1.0100672 196.091458877707 342 1 342 58653 13392435
68	184504 7743 551 380471 1.0000672 196.071391677707 279 64 80568 12325002 743636040892
69	192247 9211 809 380552 1.0100672 196.091458877707 342 64 105202 20043104 1533869517304
73	201458 8401 809 380552 1.0100672 196.091458877707 342 1 342 58653 13392435
78	209859 1099 80 90408 0.099036790067 49.0503888 50 0 21 445 6185
80	210958 125262 552 387983 1.0000672 199.954369778561 4108 1 4108 8439886 23116847754
81	336220 1462 5615 376584 3.632146531506 194.071324491128 51 1 51 1326 45526
82	337682 133319 552 387983 1.0000672 199.954369778561 4108 64 290794 641858818 1.2707513268565e+14
83	471001 1559 5615 376584 3.632146531506 194.071324491128 51 40 5040 120164 396321040
87	472560 1462 5615 376584 3.632146531506 194.071324491128 51 1 51 1326 45526
92	474022 235237 819 388021 1.0100672 199.964371778561 8318 0 562 296958 32286396
93	709259 1266 873 77852 1.0102036 41.099145345445 54 0 17 359 4159
95	710525 2449316 0 388041 0 199.964797596742 88086 0 7 228110 862414
96	3159841 722704 0 388029 0 199.964667596742 25998 0 2 25654 50966
97	3882545 83 26987 335144 14.062710847866 174.061213720371 3 0 0 0 0
98	3882628 1462 5597 376574 3.622146531506 194.061324491128 51 1 51 1326 45526
99	3884090 125276 812 388019 1.0100672 199.964369778561 4108 1 4108 8439886 23116847754
100	4009366 1610 5597 376574 3.622146531506 194.061324491128 51 40 5040 120164 396321040
101	4010976 137441 812 388019 1.0100672 199.964369778561 4108 64 290794 641858818 1.2707513268565e+14
105	4148417 129384 812 388019 1.0100672 199.964369778561 4108 1 4108 8439886 23116847754
110	4277801 1544 5669 66492 3.643130124532 35.562150564719 54 8 72 1927 83571
111	4279345 82 5669 65473 3.643130124532 35.062534844162 3 2 11 21 189
112	4279427 2280 5669 66492 3.643130124532 35.562150564719 54 0.062149761708 0.143130124532 3.445893295617 0.22630477192973
117	4281707 10 0 0 0 0 1 1 1 1 1
120	4281717 601018 0 388036 0 199.964668325705 20782 0 7 24660 95744
121	4882735 310336 0 388035 0 199.964668325705 10776 0 2 6774 9550
122	5193071 1122 6728 384927 4.273813950052 198.355804055844 39 0 0 0 0
125	5194193 717984 0 388092 0 199.995692347868 24444 0 7 15842 62750
126	5912177 419504 0 388091 0 199.995692347868 14244 0 2 8062 9946
127	6331681 1800 40725 385633 20.700483639105 198.765071066224 61 0 0 0 0
128	6333481 120 265130 265187 140.418711409131 140.420915404853 4 0 2 4 6
130	6333601 432024 0 387885 0 199.893246129734 14814 0 7 25222 95366
131	6765625 183740 0 387883 0 199.892936129734 6256 0 2 4516 7296
132	6949365 509 263593 318396 139.742664998976 165.842665019886 17 0 0 0 0
137	6949874 10 0 0 0 0 1 1 1 1 1
140	6949884 1168300 0 388031 0 199.964668028238 40190 0 7 356 1400
141	8118184 756514 0 388030 0 199.964668028238 25992 0 2 13012 13048
142	8874698 3789 9305 385653 5.454787476506 198.771719021862 129 0 0.04 0.36 0.012
143	8878487 70 0 82312 0 45 5 1 2 7 11
146	8878557 658 553 339328 1.0000672 176.0503872 22 1 22 253 3795
147	8879215 2008 810 376489 1.0100672 194.0503792 74 1 74 2775 137825
148	8881223 700 553 339328 1.0000672 176.0503872 22 64 2296 25392 39878912
149	8881923 2155 810 376489 1.0100672 194.0503792 74 64 9804 357484 2353000128
153	8884078 2008 810 376489 1.0100672 194.0503792 74 1 74 2775 137825
158	8886086 918 83 349711 0.112910363226 181.0505136 40 0 19 362 4580
160	8887004 123485 554 388067 1.0000672 199.985394133554 3891 1 3891 7571886 19643996246
161	9010489 322 39701 349883 20.04465764481 181.072289404626 11 1 11 66 506
162	9010811 130642 554 388067 1.0000672 199.985394133554 3891 64 254094 488857400 82282500066672
163	9141453 342 39701 349883 20.04465764481 181.072289404626 11 108 958 5458 3683524
167	9141795 322 39701 349883 20.04465764481 181.072289404626 11 1 11 66 506
172	9142117 868 69 773 0.084193305931 1.0012768 38 0 19 361 4579
174	9142985 121122 555 388048 1.0000672 199.983194634297 3811 1 3811 7263766 18457229406
175	9264107 456 264765 297083 140.306756730523 155.430038212296 15 1 15 120 1240
176	9264563 128117 555 388048 1.0000672 199.983194634297 3811 64 244004 465000362 75649930611108
177	9392680 482 264765 297083 140.306756730523 155.430038212296 15 130 1146 9266 7234164
181	9393162 456 264765 297083 140.306756730523 155.430038212296 15 1 15 120 1240
186	9393618 230477 821 388083 1.0100672 199.995396133554 7804 0 166 255052 17070296
187	9624095 846 874 1473 1.0102036 1.020213927258 36 0 16 288 3114
189	9624941 2416574 0 388097 0 199.995761951735 83034 0 7 214330 809766
190	12041515 700960 0 388090 0 199.995691951735 24098 0 2 23898 47598
191	12742475 30 284464 284464 149.061120104958 149.061120104958 1 0 0 0 0
192	12742505 322 39657 349854 20.03465764481 181.062289404626 11 1 11 66 506
193	12742827 123496 814 388081 1.0100672 199.995394133554 3891 1 3891 7571886 19643996246
194	12866323 342 39657 349854 20.03465764481 181.062289404626 11 108 958 5458 3683524
195	12866665 130653 814 388081 1.0100672 199.995394133554 3891 64 254094 488857400 82282500066672
199	12997318 123496 814 388081 1.0100672 199.995394133554 3891 1 3891 7571886 19643996246
204	13120814 226341 822 388071 1.0100672 199.993196634297 7652 0 130 245150 15720508
205	13347155 895 875 1515 1.0102036 1.021609745439 38 0 16 279 2847
207	13348050 2357404 0 388079 0 199.993622452478 81502 0 7 209704 793196
208	15705454 678844 0 388077 0 199.993492452478 23450 0 2 23396 46740
210	16384298 456 264728 297031 140.296756730523 155.420038212296 15 1 15 120 1240
211	16384754 121133 815 388069 1.0100672 199.993194634297 3811 1 3811 7263766 18457229406
212	16505887 482 264728 297031 140.296756730523 155.420038212296 15 130 1146 9266 7234164
213	16506369 128128 815 388069 1.0100672 199.993194634297 3811 64 244004 465000362 75649930611108
217	16634497 121133 815 388069 1.0100672 199.993194634297 3811 1 3811 7263766 18457229406
222	16755630 10 0 0 0 0 1 1 1 1 1
223	16755640 193 73768 349604 39.0201072 181.0201936 8 0 1 4 4
225	16755833 10362 556 380572 1.0000672 196.101582077707 401 1 401 80601 21574201
226	16766195 7551 1457 380557 1.0200672 196.101514877707 286 1 286 41041 7838831
227	16773746 11349 556 380572 1.0000672 196.101582077707 401 64 113098 26491110 2238858118932
228	16785095 8176 1457 380557 1.0200672 196.101514877707 286 64 80956 12873976 786725410872
232	16793271 7551 1457 380557 1.0200672 196.101514877707 286 1 286 41041 7838831
237	16800822 1845 82681 192554 45.0818624 102.0822832 78 0 2 41 43
239	16802667 7713 557 380573 1.0000672 196.101638077707 289 1 289 41905 8087665
240	16810380 10389 1459 380638 1.0200672 196.141705277707 405 1 405 82215 22225455
241	16820769 8342 557 380573 1.0000672 196.101638077707 289 64 81148 12942638 792734138372
242	16829111 11383 1459 380638 1.0200672 196.141705277707 405 64 113354 26624602 2254556656452
246	16840494 10389 1459 380638 1.0200672 196.141705277707 405 1 405 82215 22225455
249	16850883 166 15356 362113 8.5200768 187.0200768 7 1 7 28 140
250	16851049 155 15357 362114 8.52008 187.02008 7 1 7 28 140
251	16851204 75 183 183 0.287146546295 0.287146546295 3 1 1 3 3
252	16851279 51 242 4402 0.411262702755 3.035009368984 2 1 1 2 2
256	16851330 150 266134 297717 140.622888858511 155.621690818144 5 2 2 10 20
261	16851480 300 265509 297274 140.480172435334 155.480316612296 10 1 1 10 10
262	16851780 60 265520 265542 140.481015433195 140.483281428917 2 1 1 2 2
265	16851840 48 162 162 0.26102617532 0.26102617532 2 1 1 2 2
269	16851888 30 264866 264866 140.347159930523 140.347159930523 1 1 1 1 1
278	16851918 159 290 260629 0.491447337158 138.303650680978 6 1 1 6 6
279	16852077 317 39638 345461 20.034207152719 179.034207152719 11 1 1 11 11
280	16852394 299 265956 297589 140.561224192377 155.56180229182 10 1 1 10 10
283	16852693 30 265119 265119 140.418711409131 140.418711409131 1 1 1 1 1
284	16852723 150 266316 297866 140.683711377572 155.682513452137 5 1 1 5 5
285	16852873 360 265120 329791 140.418711409131 171.418711409131 12 1 1 12 12
286	16853233 60 265121 265123 140.418711409131 140.418711409131 2 1 1 2 2
289	16853293 299 265955 297588 140.561224192377 155.56180229182 10 1 1 10 10
290	16853592 60 265808 265870 140.541657874684 140.543923870406 2 1 1 2 2
291	16853652 51 196 6813 0.289443216007 4.316324289005 2 1 1 2 2
304	16853703 75 110 110 0.156143244146 0.156143244146 3 1 1 3 3
305	16853778 48 26 26 0.035482327127 0.035482327127 2 1 1 2 2
