file 16484613 1426759025                                        
version 2
run MCoA_ALL-0-20150319-10:56:51-11193
attr configname MCoA_ALL
attr datetime 20150319-10:56:51
attr experiment MCoA_ALL
attr inifile VoIPMCoACN.ini
attr iterationvars ""
attr iterationvars2 $repetition=0
attr measurement ""
attr network VoIPMCoAMulti
attr processid 11193
attr repetition 0
attr replication #0
attr resultdir results
attr runnumber 0
attr seedset 0

vector 0  VoIPMCoAMulti.Ra.networkLayer.ipv6  IPv6Active_Event  ETV
vector 51  VoIPMCoAMulti.CN[0].networkLayer.ipv6  IPv6Active_Event  ETV
vector 76  VoIPMCoAMulti.HA.networkLayer.ipv6  IPv6Active_Event  ETV
vector 133  VoIPMCoAMulti.MN[0].networkLayer.ipv6  IPv6Active_Event  ETV
vector 156  VoIPMCoAMulti.MN[1].networkLayer.ipv6  IPv6Active_Event  ETV
vector 162  VoIPMCoAMulti.R1.networkLayer.ipv6  IPv6Active_Event  ETV
vector 241  VoIPMCoAMulti.Rb.networkLayer.ipv6  IPv6Active_Event  ETV
vector 109  VoIPMCoAMulti.AP_HA.wlan.mac  RadioState  ETV
attr enum  "IDLE=0, RECV=1, SLEEP=3, TRANSMIT=2"
attr enumname  RadioState
vector 108  VoIPMCoAMulti.AP_HA.wlan.mac  State  ETV
attr enum  "BACKOFF=3, DEFER=1, IDLE=0, RECEIVE=8, WAITACK=4, WAITBROADCAST=5, WAITCTS=6, WAITDIFS=2, WAITSIFS=7"
attr enumname  Ieee80211Mac
vector 137  VoIPMCoAMulti.MN[0].wlan[0].mac  RadioState  ETV
attr enum  "IDLE=0, RECV=1, SLEEP=3, TRANSMIT=2"
attr enumname  RadioState
vector 136  VoIPMCoAMulti.MN[0].wlan[0].mac  State  ETV
attr enum  "BACKOFF=3, DEFER=1, IDLE=0, RECEIVE=8, WAITACK=4, WAITBROADCAST=5, WAITCTS=6, WAITDIFS=2, WAITSIFS=7"
attr enumname  Ieee80211Mac
vector 142  VoIPMCoAMulti.MN[0].wlan[1].mac  RadioState  ETV
attr enum  "IDLE=0, RECV=1, SLEEP=3, TRANSMIT=2"
attr enumname  RadioState
vector 141  VoIPMCoAMulti.MN[0].wlan[1].mac  State  ETV
attr enum  "BACKOFF=3, DEFER=1, IDLE=0, RECEIVE=8, WAITACK=4, WAITBROADCAST=5, WAITCTS=6, WAITDIFS=2, WAITSIFS=7"
attr enumname  Ieee80211Mac
vector 147  VoIPMCoAMulti.MN[0].wlan[2].mac  RadioState  ETV
attr enum  "IDLE=0, RECV=1, SLEEP=3, TRANSMIT=2"
attr enumname  RadioState
vector 146  VoIPMCoAMulti.MN[0].wlan[2].mac  State  ETV
attr enum  "BACKOFF=3, DEFER=1, IDLE=0, RECEIVE=8, WAITACK=4, WAITBROADCAST=5, WAITCTS=6, WAITDIFS=2, WAITSIFS=7"
attr enumname  Ieee80211Mac
vector 160  VoIPMCoAMulti.MN[1].wlan[0].mac  RadioState  ETV
attr enum  "IDLE=0, RECV=1, SLEEP=3, TRANSMIT=2"
attr enumname  RadioState
vector 159  VoIPMCoAMulti.MN[1].wlan[0].mac  State  ETV
attr enum  "BACKOFF=3, DEFER=1, IDLE=0, RECEIVE=8, WAITACK=4, WAITBROADCAST=5, WAITCTS=6, WAITDIFS=2, WAITSIFS=7"
attr enumname  Ieee80211Mac
vector 209  VoIPMCoAMulti.AP_1.wlan.mac  RadioState  ETV
attr enum  "IDLE=0, RECV=1, SLEEP=3, TRANSMIT=2"
attr enumname  RadioState
vector 208  VoIPMCoAMulti.AP_1.wlan.mac  State  ETV
attr enum  "BACKOFF=3, DEFER=1, IDLE=0, RECEIVE=8, WAITACK=4, WAITBROADCAST=5, WAITCTS=6, WAITDIFS=2, WAITSIFS=7"
attr enumname  Ieee80211Mac
vector 227  VoIPMCoAMulti.AP_2.wlan.mac  RadioState  ETV
attr enum  "IDLE=0, RECV=1, SLEEP=3, TRANSMIT=2"
attr enumname  RadioState
vector 226  VoIPMCoAMulti.AP_2.wlan.mac  State  ETV
attr enum  "BACKOFF=3, DEFER=1, IDLE=0, RECEIVE=8, WAITACK=4, WAITBROADCAST=5, WAITCTS=6, WAITDIFS=2, WAITSIFS=7"
attr enumname  Ieee80211Mac
vector 177  VoIPMCoAMulti.R1.eth[1].queue  "queue length"  ETV
vector 91  VoIPMCoAMulti.HA.eth[1].queue  "queue length"  ETV
vector 191  VoIPMCoAMulti.R1.eth[2].queue  "queue length"  ETV
vector 271  VoIPMCoAMulti.CN[0].networkLayer.neighbourDiscovery  "Starting DAD"  ETV
vector 324  VoIPMCoAMulti.Rb.networkLayer.neighbourDiscovery  "Starting DAD"  ETV
vector 270  VoIPMCoAMulti.Ra.networkLayer.neighbourDiscovery  "Starting DAD"  ETV
vector 323  VoIPMCoAMulti.R1.networkLayer.neighbourDiscovery  "Starting DAD"  ETV
vector 297  VoIPMCoAMulti.MN[0].networkLayer.neighbourDiscovery  "Starting DAD"  ETV
vector 284  VoIPMCoAMulti.HA.networkLayer.neighbourDiscovery  "Starting DAD"  ETV
vector 310  VoIPMCoAMulti.MN[1].networkLayer.neighbourDiscovery  "Starting DAD"  ETV
vector 3  VoIPMCoAMulti.Ra.eth[0].mac  framesSent  ETV
vector 5  VoIPMCoAMulti.Ra.eth[0].mac  bytesSent  ETV
vector 17  VoIPMCoAMulti.Ra.eth[1].mac  framesSent  ETV
vector 19  VoIPMCoAMulti.Ra.eth[1].mac  bytesSent  ETV
vector 31  VoIPMCoAMulti.Ra.eth[2].mac  framesSent  ETV
vector 33  VoIPMCoAMulti.Ra.eth[2].mac  bytesSent  ETV
vector 54  VoIPMCoAMulti.CN[0].eth[0].mac  framesSent  ETV
vector 56  VoIPMCoAMulti.CN[0].eth[0].mac  bytesSent  ETV
vector 79  VoIPMCoAMulti.HA.eth[0].mac  framesSent  ETV
vector 81  VoIPMCoAMulti.HA.eth[0].mac  bytesSent  ETV
vector 93  VoIPMCoAMulti.HA.eth[1].mac  framesSent  ETV
vector 95  VoIPMCoAMulti.HA.eth[1].mac  bytesSent  ETV
vector 165  VoIPMCoAMulti.R1.eth[0].mac  framesSent  ETV
vector 167  VoIPMCoAMulti.R1.eth[0].mac  bytesSent  ETV
vector 179  VoIPMCoAMulti.R1.eth[1].mac  framesSent  ETV
vector 181  VoIPMCoAMulti.R1.eth[1].mac  bytesSent  ETV
vector 193  VoIPMCoAMulti.R1.eth[2].mac  framesSent  ETV
vector 195  VoIPMCoAMulti.R1.eth[2].mac  bytesSent  ETV
vector 244  VoIPMCoAMulti.Rb.eth[0].mac  framesSent  ETV
vector 246  VoIPMCoAMulti.Rb.eth[0].mac  bytesSent  ETV
vector 258  VoIPMCoAMulti.Rb.eth[1].mac  framesSent  ETV
vector 260  VoIPMCoAMulti.Rb.eth[1].mac  bytesSent  ETV
vector 80  VoIPMCoAMulti.HA.eth[0].mac  framesReceivedOK  ETV
vector 82  VoIPMCoAMulti.HA.eth[0].mac  bytesReceivedOK  ETV
vector 86  VoIPMCoAMulti.HA.eth[0].mac  framesPassedToHL  ETV
vector 166  VoIPMCoAMulti.R1.eth[0].mac  framesReceivedOK  ETV
vector 168  VoIPMCoAMulti.R1.eth[0].mac  bytesReceivedOK  ETV
vector 172  VoIPMCoAMulti.R1.eth[0].mac  framesPassedToHL  ETV
vector 4  VoIPMCoAMulti.Ra.eth[0].mac  framesReceivedOK  ETV
vector 6  VoIPMCoAMulti.Ra.eth[0].mac  bytesReceivedOK  ETV
vector 10  VoIPMCoAMulti.Ra.eth[0].mac  framesPassedToHL  ETV
vector 112  VoIPMCoAMulti.AP_HA.eth[0]  framesReceivedOK  ETV
vector 114  VoIPMCoAMulti.AP_HA.eth[0]  bytesReceivedOK  ETV
vector 118  VoIPMCoAMulti.AP_HA.eth[0]  framesPassedToHL  ETV
vector 18  VoIPMCoAMulti.Ra.eth[1].mac  framesReceivedOK  ETV
vector 20  VoIPMCoAMulti.Ra.eth[1].mac  bytesReceivedOK  ETV
vector 24  VoIPMCoAMulti.Ra.eth[1].mac  framesPassedToHL  ETV
vector 212  VoIPMCoAMulti.AP_1.eth[0]  framesReceivedOK  ETV
vector 214  VoIPMCoAMulti.AP_1.eth[0]  bytesReceivedOK  ETV
vector 218  VoIPMCoAMulti.AP_1.eth[0]  framesPassedToHL  ETV
vector 230  VoIPMCoAMulti.AP_2.eth[0]  framesReceivedOK  ETV
vector 232  VoIPMCoAMulti.AP_2.eth[0]  bytesReceivedOK  ETV
vector 236  VoIPMCoAMulti.AP_2.eth[0]  framesPassedToHL  ETV
vector 105  VoIPMCoAMulti.AP_HA.relayUnit  "buffer level"  ETV
vector 205  VoIPMCoAMulti.AP_1.relayUnit  "buffer level"  ETV
vector 223  VoIPMCoAMulti.AP_2.relayUnit  "buffer level"  ETV
vector 106  VoIPMCoAMulti.AP_HA.wlan.mgmt  "queue length"  ETV
vector 206  VoIPMCoAMulti.AP_1.wlan.mgmt  "queue length"  ETV
vector 224  VoIPMCoAMulti.AP_2.wlan.mgmt  "queue length"  ETV
vector 245  VoIPMCoAMulti.Rb.eth[0].mac  framesReceivedOK  ETV
vector 247  VoIPMCoAMulti.Rb.eth[0].mac  bytesReceivedOK  ETV
vector 251  VoIPMCoAMulti.Rb.eth[0].mac  framesPassedToHL  ETV
vector 32  VoIPMCoAMulti.Ra.eth[2].mac  framesReceivedOK  ETV
vector 34  VoIPMCoAMulti.Ra.eth[2].mac  bytesReceivedOK  ETV
vector 38  VoIPMCoAMulti.Ra.eth[2].mac  framesPassedToHL  ETV
vector 259  VoIPMCoAMulti.Rb.eth[1].mac  framesReceivedOK  ETV
vector 261  VoIPMCoAMulti.Rb.eth[1].mac  bytesReceivedOK  ETV
vector 265  VoIPMCoAMulti.Rb.eth[1].mac  framesPassedToHL  ETV
vector 55  VoIPMCoAMulti.CN[0].eth[0].mac  framesReceivedOK  ETV
vector 57  VoIPMCoAMulti.CN[0].eth[0].mac  bytesReceivedOK  ETV
vector 61  VoIPMCoAMulti.CN[0].eth[0].mac  framesPassedToHL  ETV
vector 161  VoIPMCoAMulti.MN[1].wlan[0].radio  "MAC loss rate"  ETV
vector 138  VoIPMCoAMulti.MN[0].wlan[0].radio  "MAC loss rate"  ETV
vector 111  VoIPMCoAMulti.AP_HA.eth[0]  framesSent  ETV
vector 113  VoIPMCoAMulti.AP_HA.eth[0]  bytesSent  ETV
vector 94  VoIPMCoAMulti.HA.eth[1].mac  framesReceivedOK  ETV
vector 96  VoIPMCoAMulti.HA.eth[1].mac  bytesReceivedOK  ETV
vector 100  VoIPMCoAMulti.HA.eth[1].mac  framesPassedToHL  ETV
vector 77  VoIPMCoAMulti.HA.eth[0].queue  "queue length"  ETV
vector 29  VoIPMCoAMulti.Ra.eth[2].queue  "queue length"  ETV
vector 256  VoIPMCoAMulti.Rb.eth[1].queue  "queue length"  ETV
vector 52  VoIPMCoAMulti.CN[0].eth[0].queue  "queue length"  ETV
vector 242  VoIPMCoAMulti.Rb.eth[0].queue  "queue length"  ETV
vector 1  VoIPMCoAMulti.Ra.eth[0].queue  "queue length"  ETV
vector 298  VoIPMCoAMulti.MN[0].networkLayer.xMobileIPv6  "BU to HA"  ETV
vector 211  VoIPMCoAMulti.AP_1.eth[0]  framesSent  ETV
vector 213  VoIPMCoAMulti.AP_1.eth[0]  bytesSent  ETV
vector 180  VoIPMCoAMulti.R1.eth[1].mac  framesReceivedOK  ETV
vector 182  VoIPMCoAMulti.R1.eth[1].mac  bytesReceivedOK  ETV
vector 186  VoIPMCoAMulti.R1.eth[1].mac  framesPassedToHL  ETV
vector 288  VoIPMCoAMulti.HA.networkLayer.xMobileIPv6  "BA to MN"  ETV
vector 143  VoIPMCoAMulti.MN[0].wlan[1].radio  "MAC loss rate"  ETV
vector 302  VoIPMCoAMulti.MN[0].networkLayer.xMobileIPv6  "BA from HA"  ETV
vector 304  VoIPMCoAMulti.MN[0].networkLayer.xMobileIPv6  "HoTI to CN"  ETV
vector 305  VoIPMCoAMulti.MN[0].networkLayer.xMobileIPv6  "CoTI to CN"  ETV
vector 139  VoIPMCoAMulti.MN[0].wlan[1].mgmt  "queue length"  ETV
vector 293  VoIPMCoAMulti.HA.networkLayer.xMobileIPv6  "HoT to MN"  ETV
vector 294  VoIPMCoAMulti.HA.networkLayer.xMobileIPv6  "CoT to MN"  ETV
vector 308  VoIPMCoAMulti.MN[0].networkLayer.xMobileIPv6  "HoT from CN"  ETV
vector 309  VoIPMCoAMulti.MN[0].networkLayer.xMobileIPv6  "CoT from CN"  ETV
vector 299  VoIPMCoAMulti.MN[0].networkLayer.xMobileIPv6  "BU to CN"  ETV
vector 280  VoIPMCoAMulti.CN[0].networkLayer.xMobileIPv6  "HoT to MN"  ETV
vector 281  VoIPMCoAMulti.CN[0].networkLayer.xMobileIPv6  "CoT to MN"  ETV
vector 275  VoIPMCoAMulti.CN[0].networkLayer.xMobileIPv6  "BA to MN"  ETV
vector 303  VoIPMCoAMulti.MN[0].networkLayer.xMobileIPv6  "BA from CN"  ETV
vector 229  VoIPMCoAMulti.AP_2.eth[0]  framesSent  ETV
vector 231  VoIPMCoAMulti.AP_2.eth[0]  bytesSent  ETV
vector 194  VoIPMCoAMulti.R1.eth[2].mac  framesReceivedOK  ETV
vector 196  VoIPMCoAMulti.R1.eth[2].mac  bytesReceivedOK  ETV
vector 200  VoIPMCoAMulti.R1.eth[2].mac  framesPassedToHL  ETV
vector 148  VoIPMCoAMulti.MN[0].wlan[2].radio  "MAC loss rate"  ETV
vector 144  VoIPMCoAMulti.MN[0].wlan[2].mgmt  "queue length"  ETV
vector 110  VoIPMCoAMulti.AP_HA.wlan.radio  "MAC loss rate"  ETV
0	10394 8 0 0 0 0 1 1 1 1 1
1	10402 52 18253 18257 10.261443140874 10.261511940874 2 0 1 1 1
3	10454 440 540 67365 1.0000672 38.44839896835 17 1 17 153 1785
4	10894 440 802 67446 1.0100672 38.46849336835 17 1 17 153 1785
5	11334 471 540 67365 1.0000672 38.44839896835 17 64 1592 13264 14460624
6	11805 471 802 67446 1.0100672 38.46849336835 17 64 1622 13342 14666316
10	12276 457 802 67446 1.0100672 38.46849336835 17 1 17 153 1785
17	12733 458 541 67887 1.0000672 38.591205982616 17 1 17 153 1785
18	13191 458 804 67670 1.0100672 38.510581982616 17 1 17 153 1785
19	13649 490 541 67887 1.0000672 38.591205982616 17 64 1760 14738 17605988
20	14139 490 804 67670 1.0100672 38.510581982616 17 64 1782 14664 17383176
24	14629 458 804 67670 1.0100672 38.510581982616 17 1 17 153 1785
29	15087 54 17779 17783 10.080695940874 10.080764740874 2 0 1 1 1
31	15141 291 542 67677 1.0000672 38.510716382616 11 1 11 66 506
32	15432 292 1450 67880 1.0200672 38.591087582616 11 1 11 66 506
33	15724 310 542 67677 1.0000672 38.510716382616 11 64 982 5102 3290036
34	16034 311 1450 67880 1.0200672 38.591087582616 11 64 930 4972 3078128
38	16345 292 1450 67880 1.0200672 38.591087582616 11 1 11 66 506
51	16637 9 0 0 0 0 1 1 1 1 1
52	16646 54 17994 17998 10.161036740874 10.161105540874 2 0 1 1 1
54	16700 368 543 67769 1.0000672 38.550969182616 14 1 14 105 1015
55	17068 344 1452 67759 1.0200672 38.550850782616 13 1 13 91 819
56	17412 391 543 67769 1.0000672 38.550969182616 14 64 1122 7572 5579824
57	17803 366 1452 67759 1.0200672 38.550850782616 13 64 1110 6828 4946600
61	18169 344 1452 67759 1.0200672 38.550850782616 13 1 13 91 819
76	18513 37 0 60204 0 35 3 1 2 4 6
77	18550 54 17641 17645 10.030492740874 10.030561540874 2 0 1 1 1
79	18604 457 544 67414 1.0000672 38.45849336835 17 1 17 153 1785
80	19061 457 800 67405 1.0100672 38.45839896835 17 1 17 153 1785
81	19518 488 544 67414 1.0000672 38.45849336835 17 64 1622 13342 14666316
82	20006 488 800 67405 1.0100672 38.45839896835 17 64 1592 13264 14460624
86	20494 457 800 67405 1.0100672 38.45839896835 17 1 17 153 1785
91	20951 832 71 764 0.115677423169 1.0012768 38 0 19 361 4579
93	21783 120067 545 362410 1.0000672 199.99466682237 3907 1 3907 7634278 19887294190
94	141850 157 8530 28311 5.111241259032 15.010346211736 6 1 6 21 91
95	142007 127254 545 362410 1.0000672 199.99466682237 3907 64 250050 488601184 81460305666496
96	269261 167 8530 28311 5.111241259032 15.010346211736 6 40 256 896 167552
100	269428 163 8530 28311 5.111241259032 15.010346211736 6 1 6 21 91
105	269591 230919 810 362320 1.0100672 199.965292864114 7824 0 66 250242 16010244
106	500510 846 863 1507 1.0102036 1.022153927258 36 0 16 288 3114
108	501356 2417582 0 362395 0 199.985073900997 83200 0 7 214280 810264
109	2918938 697518 0 362387 0 199.985023900997 24014 0 2 23912 47724
110	3616456 30 322242 322242 179.239813661116 179.239813661116 1 0 0 0 0
111	3616486 163 8491 28260 5.101241259032 15.000346211736 6 1 6 21 91
112	3616649 123951 803 362318 1.0100672 199.965290864114 3906 1 3906 7630371 19872029541
113	3740600 173 8491 28260 5.101241259032 15.000346211736 6 40 256 896 167552
114	3740773 131136 803 362318 1.0100672 199.965290864114 3906 64 249986 488351134 81397780663996
118	3871909 123951 803 362318 1.0100672 199.965290864114 3906 1 3906 7630371 19872029541
133	3995860 10 0 0 0 0 1 1 1 1 1
136	3995870 695254 0 362389 0 199.985024043452 23992 0 7 15436 58644
137	4691124 401222 0 362388 0 199.985024043452 13872 0 2 7786 9490
138	5092346 1738 8118 359812 4.911634841796 198.606412669492 60 0 0 0 0
139	5094084 112 26578 26628 14.507503015193 14.509487073299 4 0 2 4 6
141	5094196 827006 0 362403 0 199.993126131155 28448 0 7 8456 32248
142	5921202 518966 0 362401 0 199.992936131155 17864 0 2 9394 10322
143	6440168 2438 26332 359474 14.445731640297 198.442665015542 84 0 0 0 0
144	6442606 112 66752 66802 38.344161547245 38.346325634507 4 0 2 4 6
146	6442718 348442 0 361977 0 199.763117020742 11986 0 7 27872 105492
147	6791160 114586 0 361975 0 199.762927020742 3964 0 2 3524 6612
148	6905746 112 66638 77769 38.323347012706 45.962655913035 4 0 0 0 0
156	6905858 10 0 0 0 0 1 1 1 1 1
159	6905868 1064452 0 362392 0 199.985024332493 36614 0 7 356 1400
160	7970320 706434 0 362391 0 199.985024332493 24296 0 2 12164 12200
161	8676754 3522 6246 361584 3.976472286066 199.522964121692 121 0 0 0 0
162	8680276 70 0 75919 0 45 5 1 2 7 11
165	8680346 475 546 67668 1.0000672 38.500581982616 17 1 17 153 1785
166	8680821 475 801 67907 1.0100672 38.601205982616 17 1 17 153 1785
167	8681296 507 546 67668 1.0000672 38.500581982616 17 64 1782 14664 17383176
168	8681803 507 801 67907 1.0100672 38.601205982616 17 64 1760 14738 17605988
172	8682310 475 801 67907 1.0100672 38.601205982616 17 1 17 153 1785
177	8682785 912 68 777 0.09995410364 1.001344 40 0 20 400 5340
179	8683697 120869 547 362354 1.0000672 199.972381456699 3806 1 3806 7244721 18384686991
180	8804566 252 26200 28287 14.395652289797 15.006111660611 9 1 9 45 285
181	8804818 127859 547 362354 1.0000672 199.972381456699 3806 64 243898 464766140 75593507002352
182	8932677 270 26200 28287 14.395652289797 15.006111660611 9 108 716 3588 1826840
186	8932947 252 26200 28287 14.395652289797 15.006111660611 9 1 9 45 285
191	8933199 960 74 786 0.118605855963 1.0014112 42 0 21 441 6181
193	8934159 121670 548 362347 1.0000672 199.966003609944 3832 1 3832 7344028 18763991540
194	9055829 250 66492 68436 38.272475599982 38.844764446403 9 1 9 45 285
195	9056079 128713 548 362347 1.0000672 199.966003609944 3832 64 245606 471147508 77183748680976
196	9184792 268 66492 68436 38.272475599982 38.844764446403 9 130 782 3896 2145752
200	9185060 250 66492 68436 38.272475599982 38.844764446403 9 1 9 45 285
205	9185310 225461 812 362371 1.0100672 199.982383456699 7630 0 144 244614 15710228
206	9410771 892 864 1435 1.0102036 1.019769745439 38 0 16 295 3055
208	9411663 2356610 0 362379 0 199.98284927488 81546 0 7 209978 793974
209	11768273 679256 0 362377 0 199.98267927488 23490 0 2 23416 46760
211	12447529 252 26163 28205 14.385652289797 14.996111660611 9 1 9 45 285
212	12447781 120879 805 362369 1.0100672 199.982381456699 3806 1 3806 7244721 18384686991
213	12568660 270 26163 28205 14.385652289797 14.996111660611 9 108 716 3588 1826840
214	12568930 127869 805 362369 1.0100672 199.982381456699 3806 64 243898 464766140 75593507002352
218	12696799 120879 805 362369 1.0100672 199.982381456699 3806 1 3806 7244721 18384686991
223	12817678 226933 813 362358 1.0100672 199.976005609944 7682 0 144 246388 15842728
224	13044611 943 865 1486 1.0102036 1.02104556362 40 0 18 356 4272
226	13045554 2377262 0 362366 0 199.976391428125 81720 0 7 210428 795656
227	15422816 683466 0 362364 0 199.976301428125 23502 0 2 23452 46856
229	16106282 250 66446 68399 38.262475599982 38.834764446403 9 1 9 45 285
230	16106532 121682 806 362356 1.0100672 199.976003609944 3832 1 3832 7344028 18763991540
231	16228214 268 66446 68399 38.262475599982 38.834764446403 9 130 782 3896 2145752
232	16228482 128725 806 362356 1.0100672 199.976003609944 3832 64 245606 471147508 77183748680976
236	16357207 121682 806 362356 1.0100672 199.976003609944 3832 1 3832 7344028 18763991540
241	16478889 10 0 0 0 0 1 1 1 1 1
242	16478899 56 18140 18144 10.221239940874 10.221308740874 2 0 1 1 1
244	16478955 302 549 67809 1.0000672 38.571087582616 11 1 11 66 506
245	16479257 303 1449 67679 1.0200672 38.530716382616 11 1 11 66 506
246	16479560 321 549 67809 1.0000672 38.571087582616 11 64 930 4972 3078128
247	16479881 322 1449 67679 1.0200672 38.530716382616 11 64 982 5102 3290036
251	16480203 303 1449 67679 1.0200672 38.530716382616 11 1 11 66 506
256	16480506 56 17937 17941 10.140899140874 10.140967940874 2 0 1 1 1
258	16480562 356 550 67686 1.0000672 38.530850782616 13 1 13 91 819
259	16480918 383 1451 67802 1.0200672 38.570969182616 14 1 14 105 1015
260	16481301 378 550 67686 1.0000672 38.530850782616 13 64 1110 6828 4946600
261	16481679 406 1451 67802 1.0200672 38.570969182616 14 64 1122 7572 5579824
265	16482085 383 1451 67802 1.0200672 38.570969182616 14 1 14 105 1015
270	16482468 75 132 132 0.233447027066 0.233447027066 3 1 1 3 3
271	16482543 50 87 3639 0.156140310969 2.528305054092 2 1 1 2 2
275	16482593 56 27600 67762 14.713445784735 38.550850782616 2 2 2 4 8
280	16482649 56 27022 67164 14.570450115098 38.407448683595 2 1 1 2 2
281	16482705 56 27053 67190 14.571653144151 38.408031727226 2 1 1 2 2
284	16482761 50 198 198 0.293585502868 0.293585502868 2 1 1 2 2
288	16482811 111 26302 67294 14.436020289797 38.43826456835 4 1 1 4 4
293	16482922 56 26794 66982 14.538571256992 38.375149796333 2 1 1 2 2
294	16482978 56 26807 66995 14.539494286045 38.376332839964 2 1 1 2 2
297	16483034 157 191 63930 0.289443216007 37.051065552241 6 1 1 6 6
298	16483191 56 26144 66425 14.385201826709 38.261991532712 2 1 1 2 2
299	16483247 631 27005 357509 14.570018845802 197.406893704157 22 1 1 22 22
302	16483878 56 26567 66741 14.507503015193 38.344161547245 2 1 1 2 2
303	16483934 56 27752 67929 14.774182489952 38.611673895208 2 1 1 2 2
304	16483990 112 26568 66744 14.507503015193 38.344161547245 4 1 1 4 4
305	16484102 112 26569 66745 14.507503015193 38.344161547245 4 1 1 4 4
308	16484214 111 26982 67564 14.569326004777 38.488501035623 4 1 1 4 4
309	16484325 112 27004 67459 14.570018845802 38.468674188345 4 1 1 4 4
310	16484437 51 254 3982 0.419663425534 2.746018912556 2 1 1 2 2
323	16484488 75 145 145 0.234158752695 0.234158752695 3 1 1 3 3
324	16484563 50 120 120 0.216189795476 0.216189795476 2 1 1 2 2
