file 16861182 1426714406                                        
version 2
run MCoA_ALL-0-20150318-22:33:19-16138
attr configname MCoA_ALL
attr datetime 20150318-22:33:19
attr experiment MCoA_ALL
attr inifile VoIPMCoACN.ini
attr iterationvars ""
attr iterationvars2 $repetition=0
attr measurement ""
attr network VoIPMCoAMulti
attr processid 16138
attr repetition 0
attr replication #0
attr resultdir results
attr runnumber 0
attr seedset 0

vector 0  VoIPMCoAMulti.Ra.networkLayer.ipv6  IPv6Active_Event  ETV
vector 51  VoIPMCoAMulti.CN[0].networkLayer.ipv6  IPv6Active_Event  ETV
vector 76  VoIPMCoAMulti.HA.networkLayer.ipv6  IPv6Active_Event  ETV
vector 133  VoIPMCoAMulti.MN[0].networkLayer.ipv6  IPv6Active_Event  ETV
vector 156  VoIPMCoAMulti.MN[1].networkLayer.ipv6  IPv6Active_Event  ETV
vector 162  VoIPMCoAMulti.R1.networkLayer.ipv6  IPv6Active_Event  ETV
vector 241  VoIPMCoAMulti.Rb.networkLayer.ipv6  IPv6Active_Event  ETV
vector 109  VoIPMCoAMulti.AP_HA.wlan.mac  RadioState  ETV
attr enum  "IDLE=0, RECV=1, SLEEP=3, TRANSMIT=2"
attr enumname  RadioState
vector 108  VoIPMCoAMulti.AP_HA.wlan.mac  State  ETV
attr enum  "BACKOFF=3, DEFER=1, IDLE=0, RECEIVE=8, WAITACK=4, WAITBROADCAST=5, WAITCTS=6, WAITDIFS=2, WAITSIFS=7"
attr enumname  Ieee80211Mac
vector 137  VoIPMCoAMulti.MN[0].wlan[0].mac  RadioState  ETV
attr enum  "IDLE=0, RECV=1, SLEEP=3, TRANSMIT=2"
attr enumname  RadioState
vector 136  VoIPMCoAMulti.MN[0].wlan[0].mac  State  ETV
attr enum  "BACKOFF=3, DEFER=1, IDLE=0, RECEIVE=8, WAITACK=4, WAITBROADCAST=5, WAITCTS=6, WAITDIFS=2, WAITSIFS=7"
attr enumname  Ieee80211Mac
vector 142  VoIPMCoAMulti.MN[0].wlan[1].mac  RadioState  ETV
attr enum  "IDLE=0, RECV=1, SLEEP=3, TRANSMIT=2"
attr enumname  RadioState
vector 141  VoIPMCoAMulti.MN[0].wlan[1].mac  State  ETV
attr enum  "BACKOFF=3, DEFER=1, IDLE=0, RECEIVE=8, WAITACK=4, WAITBROADCAST=5, WAITCTS=6, WAITDIFS=2, WAITSIFS=7"
attr enumname  Ieee80211Mac
vector 147  VoIPMCoAMulti.MN[0].wlan[2].mac  RadioState  ETV
attr enum  "IDLE=0, RECV=1, SLEEP=3, TRANSMIT=2"
attr enumname  RadioState
vector 146  VoIPMCoAMulti.MN[0].wlan[2].mac  State  ETV
attr enum  "BACKOFF=3, DEFER=1, IDLE=0, RECEIVE=8, WAITACK=4, WAITBROADCAST=5, WAITCTS=6, WAITDIFS=2, WAITSIFS=7"
attr enumname  Ieee80211Mac
vector 160  VoIPMCoAMulti.MN[1].wlan[0].mac  RadioState  ETV
attr enum  "IDLE=0, RECV=1, SLEEP=3, TRANSMIT=2"
attr enumname  RadioState
vector 159  VoIPMCoAMulti.MN[1].wlan[0].mac  State  ETV
attr enum  "BACKOFF=3, DEFER=1, IDLE=0, RECEIVE=8, WAITACK=4, WAITBROADCAST=5, WAITCTS=6, WAITDIFS=2, WAITSIFS=7"
attr enumname  Ieee80211Mac
vector 209  VoIPMCoAMulti.AP_1.wlan.mac  RadioState  ETV
attr enum  "IDLE=0, RECV=1, SLEEP=3, TRANSMIT=2"
attr enumname  RadioState
vector 208  VoIPMCoAMulti.AP_1.wlan.mac  State  ETV
attr enum  "BACKOFF=3, DEFER=1, IDLE=0, RECEIVE=8, WAITACK=4, WAITBROADCAST=5, WAITCTS=6, WAITDIFS=2, WAITSIFS=7"
attr enumname  Ieee80211Mac
vector 227  VoIPMCoAMulti.AP_2.wlan.mac  RadioState  ETV
attr enum  "IDLE=0, RECV=1, SLEEP=3, TRANSMIT=2"
attr enumname  RadioState
vector 226  VoIPMCoAMulti.AP_2.wlan.mac  State  ETV
attr enum  "BACKOFF=3, DEFER=1, IDLE=0, RECEIVE=8, WAITACK=4, WAITBROADCAST=5, WAITCTS=6, WAITDIFS=2, WAITSIFS=7"
attr enumname  Ieee80211Mac
vector 177  VoIPMCoAMulti.R1.eth[1].queue  "queue length"  ETV
vector 91  VoIPMCoAMulti.HA.eth[1].queue  "queue length"  ETV
vector 191  VoIPMCoAMulti.R1.eth[2].queue  "queue length"  ETV
vector 271  VoIPMCoAMulti.CN[0].networkLayer.neighbourDiscovery  "Starting DAD"  ETV
vector 324  VoIPMCoAMulti.Rb.networkLayer.neighbourDiscovery  "Starting DAD"  ETV
vector 270  VoIPMCoAMulti.Ra.networkLayer.neighbourDiscovery  "Starting DAD"  ETV
vector 323  VoIPMCoAMulti.R1.networkLayer.neighbourDiscovery  "Starting DAD"  ETV
vector 297  VoIPMCoAMulti.MN[0].networkLayer.neighbourDiscovery  "Starting DAD"  ETV
vector 284  VoIPMCoAMulti.HA.networkLayer.neighbourDiscovery  "Starting DAD"  ETV
vector 310  VoIPMCoAMulti.MN[1].networkLayer.neighbourDiscovery  "Starting DAD"  ETV
vector 3  VoIPMCoAMulti.Ra.eth[0].mac  framesSent  ETV
vector 5  VoIPMCoAMulti.Ra.eth[0].mac  bytesSent  ETV
vector 17  VoIPMCoAMulti.Ra.eth[1].mac  framesSent  ETV
vector 19  VoIPMCoAMulti.Ra.eth[1].mac  bytesSent  ETV
vector 31  VoIPMCoAMulti.Ra.eth[2].mac  framesSent  ETV
vector 33  VoIPMCoAMulti.Ra.eth[2].mac  bytesSent  ETV
vector 54  VoIPMCoAMulti.CN[0].eth[0].mac  framesSent  ETV
vector 56  VoIPMCoAMulti.CN[0].eth[0].mac  bytesSent  ETV
vector 79  VoIPMCoAMulti.HA.eth[0].mac  framesSent  ETV
vector 81  VoIPMCoAMulti.HA.eth[0].mac  bytesSent  ETV
vector 93  VoIPMCoAMulti.HA.eth[1].mac  framesSent  ETV
vector 95  VoIPMCoAMulti.HA.eth[1].mac  bytesSent  ETV
vector 165  VoIPMCoAMulti.R1.eth[0].mac  framesSent  ETV
vector 167  VoIPMCoAMulti.R1.eth[0].mac  bytesSent  ETV
vector 179  VoIPMCoAMulti.R1.eth[1].mac  framesSent  ETV
vector 181  VoIPMCoAMulti.R1.eth[1].mac  bytesSent  ETV
vector 193  VoIPMCoAMulti.R1.eth[2].mac  framesSent  ETV
vector 195  VoIPMCoAMulti.R1.eth[2].mac  bytesSent  ETV
vector 244  VoIPMCoAMulti.Rb.eth[0].mac  framesSent  ETV
vector 246  VoIPMCoAMulti.Rb.eth[0].mac  bytesSent  ETV
vector 258  VoIPMCoAMulti.Rb.eth[1].mac  framesSent  ETV
vector 260  VoIPMCoAMulti.Rb.eth[1].mac  bytesSent  ETV
vector 80  VoIPMCoAMulti.HA.eth[0].mac  framesReceivedOK  ETV
vector 82  VoIPMCoAMulti.HA.eth[0].mac  bytesReceivedOK  ETV
vector 86  VoIPMCoAMulti.HA.eth[0].mac  framesPassedToHL  ETV
vector 166  VoIPMCoAMulti.R1.eth[0].mac  framesReceivedOK  ETV
vector 168  VoIPMCoAMulti.R1.eth[0].mac  bytesReceivedOK  ETV
vector 172  VoIPMCoAMulti.R1.eth[0].mac  framesPassedToHL  ETV
vector 4  VoIPMCoAMulti.Ra.eth[0].mac  framesReceivedOK  ETV
vector 6  VoIPMCoAMulti.Ra.eth[0].mac  bytesReceivedOK  ETV
vector 10  VoIPMCoAMulti.Ra.eth[0].mac  framesPassedToHL  ETV
vector 112  VoIPMCoAMulti.AP_HA.eth[0]  framesReceivedOK  ETV
vector 114  VoIPMCoAMulti.AP_HA.eth[0]  bytesReceivedOK  ETV
vector 118  VoIPMCoAMulti.AP_HA.eth[0]  framesPassedToHL  ETV
vector 18  VoIPMCoAMulti.Ra.eth[1].mac  framesReceivedOK  ETV
vector 20  VoIPMCoAMulti.Ra.eth[1].mac  bytesReceivedOK  ETV
vector 24  VoIPMCoAMulti.Ra.eth[1].mac  framesPassedToHL  ETV
vector 212  VoIPMCoAMulti.AP_1.eth[0]  framesReceivedOK  ETV
vector 214  VoIPMCoAMulti.AP_1.eth[0]  bytesReceivedOK  ETV
vector 218  VoIPMCoAMulti.AP_1.eth[0]  framesPassedToHL  ETV
vector 230  VoIPMCoAMulti.AP_2.eth[0]  framesReceivedOK  ETV
vector 232  VoIPMCoAMulti.AP_2.eth[0]  bytesReceivedOK  ETV
vector 236  VoIPMCoAMulti.AP_2.eth[0]  framesPassedToHL  ETV
vector 105  VoIPMCoAMulti.AP_HA.relayUnit  "buffer level"  ETV
vector 205  VoIPMCoAMulti.AP_1.relayUnit  "buffer level"  ETV
vector 223  VoIPMCoAMulti.AP_2.relayUnit  "buffer level"  ETV
vector 106  VoIPMCoAMulti.AP_HA.wlan.mgmt  "queue length"  ETV
vector 206  VoIPMCoAMulti.AP_1.wlan.mgmt  "queue length"  ETV
vector 224  VoIPMCoAMulti.AP_2.wlan.mgmt  "queue length"  ETV
vector 245  VoIPMCoAMulti.Rb.eth[0].mac  framesReceivedOK  ETV
vector 247  VoIPMCoAMulti.Rb.eth[0].mac  bytesReceivedOK  ETV
vector 251  VoIPMCoAMulti.Rb.eth[0].mac  framesPassedToHL  ETV
vector 32  VoIPMCoAMulti.Ra.eth[2].mac  framesReceivedOK  ETV
vector 34  VoIPMCoAMulti.Ra.eth[2].mac  bytesReceivedOK  ETV
vector 38  VoIPMCoAMulti.Ra.eth[2].mac  framesPassedToHL  ETV
vector 259  VoIPMCoAMulti.Rb.eth[1].mac  framesReceivedOK  ETV
vector 261  VoIPMCoAMulti.Rb.eth[1].mac  bytesReceivedOK  ETV
vector 265  VoIPMCoAMulti.Rb.eth[1].mac  framesPassedToHL  ETV
vector 55  VoIPMCoAMulti.CN[0].eth[0].mac  framesReceivedOK  ETV
vector 57  VoIPMCoAMulti.CN[0].eth[0].mac  bytesReceivedOK  ETV
vector 61  VoIPMCoAMulti.CN[0].eth[0].mac  framesPassedToHL  ETV
vector 161  VoIPMCoAMulti.MN[1].wlan[0].radio  "MAC loss rate"  ETV
vector 138  VoIPMCoAMulti.MN[0].wlan[0].radio  "MAC loss rate"  ETV
vector 111  VoIPMCoAMulti.AP_HA.eth[0]  framesSent  ETV
vector 113  VoIPMCoAMulti.AP_HA.eth[0]  bytesSent  ETV
vector 94  VoIPMCoAMulti.HA.eth[1].mac  framesReceivedOK  ETV
vector 96  VoIPMCoAMulti.HA.eth[1].mac  bytesReceivedOK  ETV
vector 100  VoIPMCoAMulti.HA.eth[1].mac  framesPassedToHL  ETV
vector 77  VoIPMCoAMulti.HA.eth[0].queue  "queue length"  ETV
vector 29  VoIPMCoAMulti.Ra.eth[2].queue  "queue length"  ETV
vector 256  VoIPMCoAMulti.Rb.eth[1].queue  "queue length"  ETV
vector 143  VoIPMCoAMulti.MN[0].wlan[1].radio  "MAC loss rate"  ETV
vector 211  VoIPMCoAMulti.AP_1.eth[0]  framesSent  ETV
vector 213  VoIPMCoAMulti.AP_1.eth[0]  bytesSent  ETV
vector 180  VoIPMCoAMulti.R1.eth[1].mac  framesReceivedOK  ETV
vector 182  VoIPMCoAMulti.R1.eth[1].mac  bytesReceivedOK  ETV
vector 186  VoIPMCoAMulti.R1.eth[1].mac  framesPassedToHL  ETV
vector 148  VoIPMCoAMulti.MN[0].wlan[2].radio  "MAC loss rate"  ETV
vector 229  VoIPMCoAMulti.AP_2.eth[0]  framesSent  ETV
vector 231  VoIPMCoAMulti.AP_2.eth[0]  bytesSent  ETV
vector 194  VoIPMCoAMulti.R1.eth[2].mac  framesReceivedOK  ETV
vector 196  VoIPMCoAMulti.R1.eth[2].mac  bytesReceivedOK  ETV
vector 200  VoIPMCoAMulti.R1.eth[2].mac  framesPassedToHL  ETV
0	8963 8 0 0 0 0 1 1 1 1 1
3	8971 44 540 17625 1.0000672 10.020492740874 2 1 2 3 5
4	9015 96 802 17674 1.0100672 10.040630340874 4 1 4 10 30
5	9111 47 540 17625 1.0000672 10.020492740874 2 64 128 192 20480
6	9158 103 802 17674 1.0100672 10.040630340874 4 64 260 646 125716
10	9261 100 802 17674 1.0100672 10.040630340874 4 1 4 10 30
17	9361 19 541 541 1.0000672 1.0000672 1 1 1 1 1
18	9380 19 804 804 1.0100672 1.0100672 1 1 1 1 1
19	9399 20 541 541 1.0000672 1.0000672 1 64 64 64 4096
20	9419 20 804 804 1.0100672 1.0100672 1 64 64 64 4096
24	9439 19 804 804 1.0100672 1.0100672 1 1 1 1 1
29	9458 54 17779 17783 10.080695940874 10.080764740874 2 0 1 1 1
31	9512 100 542 17787 1.0000672 10.080833540874 4 1 4 10 30
32	9612 47 1450 17772 1.0200672 10.080695940874 2 1 2 3 5
33	9659 107 542 17787 1.0000672 10.080833540874 4 64 260 646 125716
34	9766 50 1450 17772 1.0200672 10.080695940874 2 64 128 192 20480
38	9816 47 1450 17772 1.0200672 10.080695940874 2 1 2 3 5
51	9863 9 0 0 0 0 1 1 1 1 1
54	9872 120 543 17920 1.0000672 10.120899140874 5 1 5 15 55
55	9992 151 1452 17983 1.0200672 10.161036740874 6 1 6 21 91
56	10143 129 543 17920 1.0000672 10.120899140874 5 64 320 960 225280
57	10272 162 1452 17983 1.0200672 10.161036740874 6 64 388 1350 377108
61	10434 151 1452 17983 1.0200672 10.161036740874 6 1 6 21 91
76	10585 37 0 59103 0 35 3 1 2 4 6
77	10622 54 17641 17645 10.030492740874 10.030561540874 2 0 1 1 1
79	10676 100 544 17649 1.0000672 10.030630340874 4 1 4 10 30
80	10776 46 800 17634 1.0100672 10.030492740874 2 1 2 3 5
81	10822 107 544 17649 1.0000672 10.030630340874 4 64 260 646 125716
82	10929 49 800 17634 1.0100672 10.030492740874 2 64 128 192 20480
86	10978 46 800 17634 1.0100672 10.030492740874 2 1 2 3 5
91	11024 832 71 764 0.115677423169 1.0012768 38 0 19 361 4579
93	11856 120661 545 367405 1.0000672 199.940721383768 3926 1 3926 7708701 20178809651
94	132517 131 8530 27225 5.111241259032 15.010346211736 5 1 5 15 55
95	132648 127886 545 367405 1.0000672 199.940721383768 3926 64 251264 493356864 82652404330496
96	260534 139 8530 27225 5.111241259032 15.010346211736 5 40 216 640 102016
100	260673 136 8530 27225 5.111241259032 15.010346211736 5 1 5 15 55
105	260809 232054 810 367428 1.0100672 199.950723383768 7862 0 64 251480 16090304
106	492863 846 863 1507 1.0102036 1.022153927258 36 0 16 288 3114
108	493709 2419384 0 367500 0 199.985213900997 83242 0 7 214380 810592
109	2913093 696346 0 367495 0 199.985023900997 23970 0 2 23902 47738
111	3609439 136 8491 27192 5.101241259032 15.000346211736 5 1 5 15 55
112	3609575 124596 803 367426 1.0100672 199.950721383768 3926 1 3926 7708701 20178809651
113	3734171 144 8491 27192 5.101241259032 15.000346211736 5 40 216 640 102016
114	3734315 131821 803 367426 1.0100672 199.950721383768 3926 64 251264 493356864 82652404330496
118	3866136 124596 803 367426 1.0100672 199.950721383768 3926 1 3926 7708701 20178809651
133	3990732 10 0 0 0 0 1 1 1 1 1
136	3990742 623504 0 367328 0 199.885965825681 21480 0 7 17434 65974
137	4614246 343244 0 367323 0 199.885295825681 11840 0 2 6880 8804
138	4957490 1423 8118 256547 4.911634841796 142.285024717258 49 0 0 0 0
141	4958913 840322 0 367482 0 199.963027788342 28898 0 7 7024 26728
142	5799235 532720 0 367481 0 199.963027788342 18316 0 2 9544 10320
143	6331955 2532 26298 365388 14.519681044597 198.842664460568 87 0 0 0 0
146	6334487 631692 0 367398 0 199.913377019674 21642 0 7 16520 62544
147	6966179 352586 0 367396 0 199.912927019674 12072 0 2 6948 8776
148	7318765 1494 65812 365039 38.462655885303 198.662655918953 51 0 0 0 0
156	7320259 10 0 0 0 0 1 1 1 1 1
159	7320269 1070032 0 367497 0 199.985024332493 36794 0 7 356 1400
160	8390301 711334 0 367496 0 199.985024332493 24456 0 2 12244 12280
161	9101635 3558 6246 367312 3.976472286066 199.885024332493 122 0 0.02 0.04 0.0008
162	9105193 70 0 74058 0 45 5 1 2 7 11
165	9105263 20 546 546 1.0000672 1.0000672 1 1 1 1 1
166	9105283 20 801 801 1.0100672 1.0100672 1 1 1 1 1
167	9105303 21 546 546 1.0000672 1.0000672 1 64 64 64 4096
168	9105324 21 801 801 1.0100672 1.0100672 1 64 64 64 4096
172	9105345 20 801 801 1.0100672 1.0100672 1 1 1 1 1
177	9105365 912 68 777 0.09995410364 1.001344 40 0 20 400 5340
179	9106277 119881 547 367507 1.0000672 199.991363126601 3776 1 3776 7130976 17953420576
180	9226158 28 27826 27826 15.271992853889 15.271992853889 1 1 1 1 1
181	9226186 126806 547 367507 1.0000672 199.991363126601 3776 64 241664 456382464 73537210679296
182	9352992 29 27826 27826 15.271992853889 15.271992853889 1 40 40 40 1600
186	9353021 28 27826 27826 15.271992853889 15.271992853889 1 1 1 1 1
191	9353049 960 74 786 0.118605855963 1.0014112 42 0 21 441 6181
193	9354009 121195 548 367514 1.0000672 199.99998443937 3817 1 3817 7286653 18544531885
194	9475204 28 67274 67274 39.182483306534 39.182483306534 1 1 1 1 1
195	9475232 128202 548 367514 1.0000672 199.99998443937 3817 64 244288 466345792 75958402600960
196	9603434 29 67274 67274 39.182483306534 39.182483306534 1 40 40 40 1600
200	9603463 28 67274 67274 39.182483306534 39.182483306534 1 1 1 1 1
205	9603491 223111 812 367472 1.0100672 199.962731697482 7552 0 64 241640 15464000
206	9826602 892 864 1435 1.0102036 1.019769745439 38 0 16 295 3055
208	9827494 2341218 0 367487 0 199.963197515663 81024 0 7 208602 788478
209	12168712 673104 0 367480 0 199.963027515663 23278 0 2 23230 46414
211	12841816 28 27794 27794 15.261992853889 15.261992853889 1 1 1 1 1
212	12841844 119858 805 367470 1.0100672 199.962729697482 3775 1 3775 7127200 17939162400
213	12961702 29 27794 27794 15.261992853889 15.261992853889 1 40 40 40 1600
214	12961731 126781 805 367470 1.0100672 199.962729697482 3775 64 241600 456140800 73478809190400
218	13088512 119858 805 367470 1.0100672 199.962729697482 3775 1 3775 7127200 17939162400
223	13208370 225538 813 367453 1.0100672 199.959744289839 7634 0 64 244264 15631936
224	13433908 943 865 1486 1.0102036 1.02104556362 40 0 18 356 4272
226	13434851 2372436 0 367478 0 199.962825096911 81538 0 7 209992 793796
227	15807287 681606 0 367467 0 199.962655096911 23430 0 2 23386 46730
229	16488893 28 67238 67238 39.172483306534 39.172483306534 1 1 1 1 1
230	16488921 121174 806 367451 1.0100672 199.959742289839 3816 1 3816 7282836 18529962396
231	16610095 29 67238 67238 39.172483306534 39.172483306534 1 40 40 40 1600
232	16610124 128179 806 367451 1.0100672 199.959742289839 3816 64 244224 466101504 75898725974016
236	16738303 121174 806 367451 1.0100672 199.959742289839 3816 1 3816 7282836 18529962396
241	16859477 10 0 0 0 0 1 1 1 1 1
244	16859487 48 549 17711 1.0000672 10.060695940874 2 1 2 3 5
245	16859535 105 1449 17828 1.0200672 10.100833540874 4 1 4 10 30
246	16859640 51 549 17711 1.0000672 10.060695940874 2 64 128 192 20480
247	16859691 112 1449 17828 1.0200672 10.100833540874 4 64 260 646 125716
251	16859803 105 1449 17828 1.0200672 10.100833540874 4 1 4 10 30
256	16859908 56 17937 17941 10.140899140874 10.140967940874 2 0 1 1 1
258	16859964 156 550 17945 1.0000672 10.141036740874 6 1 6 21 91
259	16860120 126 1451 17930 1.0200672 10.140899140874 5 1 5 15 55
260	16860246 167 550 17945 1.0000672 10.141036740874 6 64 388 1350 377108
261	16860413 135 1451 17930 1.0200672 10.140899140874 5 64 320 960 225280
265	16860548 126 1451 17930 1.0200672 10.140899140874 5 1 5 15 55
270	16860674 75 132 132 0.233447027066 0.233447027066 3 1 1 3 3
271	16860749 50 87 3639 0.156140310969 2.528305054092 2 1 1 2 2
284	16860799 50 198 198 0.293585502868 0.293585502868 2 1 1 2 2
297	16860849 157 191 62923 0.289443216007 37.051782243872 6 1 1 6 6
310	16861006 51 254 3982 0.419663425534 2.746018912556 2 1 1 2 2
323	16861057 75 145 145 0.234158752695 0.234158752695 3 1 1 3 3
324	16861132 50 120 120 0.216189795476 0.216189795476 2 1 1 2 2
