file 17233774 1426620370                                        
version 2
run MIPv6-0-20150309-22:21:55-24108
attr configname MIPv6
attr datetime 20150309-22:21:55
attr experiment MIPv6
attr inifile VoIPMCoACN.ini
attr iterationvars ""
attr iterationvars2 $repetition=0
attr measurement ""
attr network VoIPMCoAMulti
attr processid 24108
attr repetition 0
attr replication #0
attr resultdir results
attr runnumber 0
attr seedset 0
vector 0  VoIPMCoAMulti.Ra.networkLayer.ipv6  IPv6Active_Event  ETV
0	10115 8 0 0 0 0 1 1 1 1 1
vector 48  VoIPMCoAMulti.CN[0].networkLayer.ipv6  IPv6Active_Event  ETV
48	95852 9 0 0 0 0 1 1 1 1 1
vector 70  VoIPMCoAMulti.HA.networkLayer.ipv6  IPv6Active_Event  ETV
70	135647 37 0 65920 0 35 3 1 2 4 6
vector 124  VoIPMCoAMulti.MN[0].networkLayer.ipv6  IPv6Active_Event  ETV
124	4723788 10 0 0 0 0 1 1 1 1 1
vector 144  VoIPMCoAMulti.MN[1].networkLayer.ipv6  IPv6Active_Event  ETV
144	7179654 10 0 0 0 0 1 1 1 1 1
vector 150  VoIPMCoAMulti.R1.networkLayer.ipv6  IPv6Active_Event  ETV
150	9396763 70 0 83997 0 45 5 1 2 7 11
vector 229  VoIPMCoAMulti.Rb.networkLayer.ipv6  IPv6Active_Event  ETV
229	17153683 10 0 0 0 0 1 1 1 1 1
vector 103  VoIPMCoAMulti.AP_HA.wlan.mac  RadioState  ETV
attr enum "IDLE=0, RECV=1, SLEEP=3, TRANSMIT=2"
attr enumname RadioState
103	3461806 840988 0 387474 0 199.986736812932 29074 0 2 28520 56484
vector 102  VoIPMCoAMulti.AP_HA.wlan.mac  State  ETV
attr enum "BACKOFF=3, DEFER=1, IDLE=0, RECEIVE=8, WAITACK=4, WAITBROADCAST=5, WAITCTS=6, WAITDIFS=2, WAITSIFS=7"
attr enumname Ieee80211Mac
102	702286 2759520 0 387486 0 199.986886812932 95274 0 7 251736 948392
vector 128  VoIPMCoAMulti.MN[0].wlan[0].mac  RadioState  ETV
attr enum "IDLE=0, RECV=1, SLEEP=3, TRANSMIT=2"
attr enumname RadioState
128	5441574 397104 0 387475 0 199.986737144097 13728 0 2 8318 11230
vector 127  VoIPMCoAMulti.MN[0].wlan[0].mac  State  ETV
attr enum "BACKOFF=3, DEFER=1, IDLE=0, RECEIVE=8, WAITACK=4, WAITBROADCAST=5, WAITCTS=6, WAITDIFS=2, WAITSIFS=7"
attr enumname Ieee80211Mac
127	4723798 717776 0 387476 0 199.986737144097 24764 0 7 25360 100556
vector 133  VoIPMCoAMulti.MN[0].wlan[1].mac  RadioState  ETV
attr enum "IDLE=0, RECV=1, SLEEP=3, TRANSMIT=2"
attr enumname RadioState
133	6405910 302444 0 387498 0 199.990284591115 10556 0 2 6232 8144
vector 132  VoIPMCoAMulti.MN[0].wlan[1].mac  State  ETV
attr enum "BACKOFF=3, DEFER=1, IDLE=0, RECEIVE=8, WAITACK=4, WAITBROADCAST=5, WAITCTS=6, WAITDIFS=2, WAITSIFS=7"
attr enumname Ieee80211Mac
132	5840242 565668 0 387499 0 199.990284591115 19608 0 7 17262 65230
vector 138  VoIPMCoAMulti.MN[0].wlan[2].mac  RadioState  ETV
attr enum "IDLE=0, RECV=1, SLEEP=3, TRANSMIT=2"
attr enumname RadioState
138	7060942 118572 0 387430 0 199.962927020532 4104 0 2 3544 6532
vector 137  VoIPMCoAMulti.MN[0].wlan[2].mac  State  ETV
attr enum "BACKOFF=3, DEFER=1, IDLE=0, RECEIVE=8, WAITACK=4, WAITBROADCAST=5, WAITCTS=6, WAITDIFS=2, WAITSIFS=7"
attr enumname Ieee80211Mac
137	6709580 351362 0 387432 0 199.963257020532 12080 0 7 26930 101778
vector 148  VoIPMCoAMulti.MN[1].wlan[0].mac  RadioState  ETV
attr enum "IDLE=0, RECV=1, SLEEP=3, TRANSMIT=2"
attr enumname RadioState
148	8550270 842316 0 387480 0 199.986737244428 29028 0 2 14530 14566
vector 147  VoIPMCoAMulti.MN[1].wlan[0].mac  State  ETV
attr enum "BACKOFF=3, DEFER=1, IDLE=0, RECEIVE=8, WAITACK=4, WAITBROADCAST=5, WAITCTS=6, WAITDIFS=2, WAITSIFS=7"
attr enumname Ieee80211Mac
147	7179664 1370606 0 387481 0 199.986737244428 47318 0 7 350 1390
vector 197  VoIPMCoAMulti.AP_1.wlan.mac  RadioState  ETV
attr enum "IDLE=0, RECV=1, SLEEP=3, TRANSMIT=2"
attr enumname RadioState
197	12469148 673734 0 387497 0 199.990283758495 23278 0 2 23258 46498
vector 196  VoIPMCoAMulti.AP_1.wlan.mac  State  ETV
attr enum "BACKOFF=3, DEFER=1, IDLE=0, RECEIVE=8, WAITACK=4, WAITBROADCAST=5, WAITCTS=6, WAITDIFS=2, WAITSIFS=7"
attr enumname Ieee80211Mac
196	10122234 2346914 0 387504 0 199.990453758495 81138 0 7 208982 789930
vector 215  VoIPMCoAMulti.AP_2.wlan.mac  RadioState  ETV
attr enum "IDLE=0, RECV=1, SLEEP=3, TRANSMIT=2"
attr enumname RadioState
215	16105120 678500 0 387422 0 199.962655096911 23298 0 2 23278 46538
vector 214  VoIPMCoAMulti.AP_2.wlan.mac  State  ETV
attr enum "BACKOFF=3, DEFER=1, IDLE=0, RECEIVE=8, WAITACK=4, WAITBROADCAST=5, WAITCTS=6, WAITDIFS=2, WAITSIFS=7"
attr enumname Ieee80211Mac
214	13738490 2366630 0 387428 0 199.962725096911 81248 0 7 209202 790690
vector 43  VoIPMCoAMulti.CN[0].udpApp[0]  "MCOA VIDEO Packet Sent"  ETV
43	84674 3351 2 200810 0 99.5 200 1 200 20100 2686700
vector 165  VoIPMCoAMulti.R1.eth[1].queue  "queue length"  ETV
165	9396935 912 69 788 0.09995410364 1.001344 40 0 20 400 5340
vector 85  VoIPMCoAMulti.HA.eth[1].queue  "queue length"  ETV
85	179450 1419 72 188439 0.115677423169 93.0503888 62 0 19 381 4611
vector 179  VoIPMCoAMulti.R1.eth[2].queue  "queue length"  ETV
179	9646471 960 75 797 0.118605855963 1.0014112 42 0 21 441 6181
vector 259  VoIPMCoAMulti.CN[0].networkLayer.neighbourDiscovery  "Starting DAD"  ETV
259	17233264 50 88 3665 0.156140310969 2.528305054092 2 1 1 2 2
vector 312  VoIPMCoAMulti.Rb.networkLayer.neighbourDiscovery  "Starting DAD"  ETV
312	17233724 50 121 121 0.216189795476 0.216189795476 2 1 1 2 2
vector 258  VoIPMCoAMulti.Ra.networkLayer.neighbourDiscovery  "Starting DAD"  ETV
258	17233189 75 133 133 0.233447027066 0.233447027066 3 1 1 3 3
vector 311  VoIPMCoAMulti.R1.networkLayer.neighbourDiscovery  "Starting DAD"  ETV
311	17233649 75 146 146 0.234158752695 0.234158752695 3 1 1 3 3
vector 285  VoIPMCoAMulti.MN[0].networkLayer.neighbourDiscovery  "Starting DAD"  ETV
285	17233390 156 192 70552 0.289443216007 37.071796535362 6 1 1 6 6
vector 272  VoIPMCoAMulti.HA.networkLayer.neighbourDiscovery  "Starting DAD"  ETV
272	17233314 50 199 199 0.293585502868 0.293585502868 2 1 1 2 2
vector 298  VoIPMCoAMulti.MN[1].networkLayer.neighbourDiscovery  "Starting DAD"  ETV
298	17233598 51 255 4008 0.419663425534 2.746018912556 2 1 1 2 2
vector 3  VoIPMCoAMulti.Ra.eth[0].mac  framesSent  ETV
3	10123 9046 551 376384 1.0000672 194.0403216 384 1 384 73920 18948160
vector 5  VoIPMCoAMulti.Ra.eth[0].mac  bytesSent  ETV
5	23980 9985 551 376384 1.0000672 194.0403216 384 64 110408 24625682 2031997210084
vector 17  VoIPMCoAMulti.Ra.eth[1].mac  framesSent  ETV
17	44216 19 552 552 1.0000672 1.0000672 1 1 1 1 1
vector 19  VoIPMCoAMulti.Ra.eth[1].mac  bytesSent  ETV
19	44254 20 552 552 1.0000672 1.0000672 1 64 64 64 4096
vector 31  VoIPMCoAMulti.Ra.eth[2].mac  framesSent  ETV
31	45025 4993 553 376577 1.0000672 194.081691804142 192 1 192 18528 2377760
vector 33  VoIPMCoAMulti.Ra.eth[2].mac  bytesSent  ETV
33	59447 5430 553 376577 1.0000672 194.081691804142 192 64 38128 4159882 118323039044
vector 51  VoIPMCoAMulti.CN[0].eth[0].mac  framesSent  ETV
51	99425 9627 554 376308 1.0000672 194.0001072 395 1 395 78210 20621370
vector 53  VoIPMCoAMulti.CN[0].eth[0].mac  bytesSent  ETV
53	114166 10597 554 376308 1.0000672 194.0001072 395 64 112518 25684866 2160924920476
vector 73  VoIPMCoAMulti.HA.eth[0].mac  framesSent  ETV
73	139778 5003 555 376549 1.0000672 194.071584604142 192 1 192 18528 2377760
vector 75  VoIPMCoAMulti.HA.eth[0].mac  bytesSent  ETV
75	154211 5440 555 376549 1.0000672 194.071584604142 192 64 38128 4159882 118323039044
vector 87  VoIPMCoAMulti.HA.eth[1].mac  framesSent  ETV
87	180869 129580 556 387439 1.0000672 199.976438994751 4264 1 4264 9092980 25851342140
vector 89  VoIPMCoAMulti.HA.eth[1].mac  bytesSent  ETV
89	312711 137966 556 387439 1.0000672 199.976438994751 4264 64 336494 781904138 1.837039937794e+14
vector 153  VoIPMCoAMulti.R1.eth[0].mac  framesSent  ETV
153	9396833 20 557 557 1.0000672 1.0000672 1 1 1 1 1
vector 155  VoIPMCoAMulti.R1.eth[0].mac  bytesSent  ETV
155	9396873 21 557 557 1.0000672 1.0000672 1 64 64 64 4096
vector 167  VoIPMCoAMulti.R1.eth[1].mac  framesSent  ETV
167	9397847 120782 558 387446 1.0000672 199.979985940314 3801 1 3801 7225701 18312334901
vector 169  VoIPMCoAMulti.R1.eth[1].mac  bytesSent  ETV
169	9518657 127757 558 387446 1.0000672 199.979985940314 3801 64 243264 462444864 75007323754496
vector 181  VoIPMCoAMulti.R1.eth[2].mac  framesSent  ETV
181	9647431 120995 559 387386 1.0000672 199.94447956098 3806 1 3806 7244721 18384686991
vector 183  VoIPMCoAMulti.R1.eth[2].mac  bytesSent  ETV
183	9768454 127980 559 387386 1.0000672 199.94447956098 3806 64 243584 463662144 75303677915136
vector 232  VoIPMCoAMulti.Rb.eth[0].mac  framesSent  ETV
232	17153936 9812 560 376356 1.0000672 194.0202144 384 1 384 73920 18948160
vector 234  VoIPMCoAMulti.Rb.eth[0].mac  bytesSent  ETV
234	17168934 10751 560 376356 1.0000672 194.0202144 384 64 110408 24625732 2032008030384
vector 246  VoIPMCoAMulti.Rb.eth[1].mac  framesSent  ETV
246	17191242 5339 561 376642 1.0000672 194.101799004142 195 1 195 19110 2490670
vector 248  VoIPMCoAMulti.Rb.eth[1].mac  bytesSent  ETV
248	17206424 5779 561 376642 1.0000672 194.101799004142 195 64 38320 4198580 120001710344
vector 74  VoIPMCoAMulti.HA.eth[0].mac  framesReceivedOK  ETV
74	144781 9430 811 376413 1.0100672 194.0503216 384 1 384 73920 18948160
vector 76  VoIPMCoAMulti.HA.eth[0].mac  bytesReceivedOK  ETV
76	159651 10369 811 376413 1.0100672 194.0503216 384 64 110408 24625682 2031997210084
vector 80  VoIPMCoAMulti.HA.eth[0].mac  framesPassedToHL  ETV
80	170020 9430 811 376413 1.0100672 194.0503216 384 1 384 73920 18948160
vector 154  VoIPMCoAMulti.R1.eth[0].mac  framesReceivedOK  ETV
154	9396853 20 812 812 1.0100672 1.0100672 1 1 1 1 1
vector 156  VoIPMCoAMulti.R1.eth[0].mac  bytesReceivedOK  ETV
156	9396894 21 812 812 1.0100672 1.0100672 1 64 64 64 4096
vector 160  VoIPMCoAMulti.R1.eth[0].mac  framesPassedToHL  ETV
160	9396915 20 812 812 1.0100672 1.0100672 1 1 1 1 1
vector 4  VoIPMCoAMulti.Ra.eth[0].mac  framesReceivedOK  ETV
4	19169 4811 813 376570 1.0100672 194.081584604142 192 1 192 18528 2377760
vector 6  VoIPMCoAMulti.Ra.eth[0].mac  bytesReceivedOK  ETV
6	33965 5248 813 376570 1.0100672 194.081584604142 192 64 38128 4159882 118323039044
vector 10  VoIPMCoAMulti.Ra.eth[0].mac  framesPassedToHL  ETV
10	39213 5003 813 376570 1.0100672 194.081584604142 192 1 192 18528 2377760
vector 106  VoIPMCoAMulti.AP_HA.eth[0]  framesReceivedOK  ETV
106	4305278 133855 814 387464 1.0100672 199.986438994751 4264 1 4264 9092980 25851342140
vector 108  VoIPMCoAMulti.AP_HA.eth[0]  bytesReceivedOK  ETV
108	4441626 142241 814 387464 1.0100672 199.986438994751 4264 64 336494 781904138 1.837039937794e+14
vector 112  VoIPMCoAMulti.AP_HA.eth[0]  framesPassedToHL  ETV
112	4583867 133855 814 387464 1.0100672 199.986438994751 4264 1 4264 9092980 25851342140
vector 18  VoIPMCoAMulti.Ra.eth[1].mac  framesReceivedOK  ETV
18	44235 19 815 815 1.0100672 1.0100672 1 1 1 1 1
vector 20  VoIPMCoAMulti.Ra.eth[1].mac  bytesReceivedOK  ETV
20	44274 20 815 815 1.0100672 1.0100672 1 64 64 64 4096
vector 24  VoIPMCoAMulti.Ra.eth[1].mac  framesPassedToHL  ETV
24	44294 19 815 815 1.0100672 1.0100672 1 1 1 1 1
vector 200  VoIPMCoAMulti.AP_1.eth[0]  framesReceivedOK  ETV
200	13142910 120793 816 387488 1.0100672 199.989985940314 3801 1 3801 7225701 18312334901
vector 202  VoIPMCoAMulti.AP_1.eth[0]  bytesReceivedOK  ETV
202	13263732 127768 816 387488 1.0100672 199.989985940314 3801 64 243264 462444864 75007323754496
vector 206  VoIPMCoAMulti.AP_1.eth[0]  framesPassedToHL  ETV
206	13391500 120793 816 387488 1.0100672 199.989985940314 3801 1 3801 7225701 18312334901
vector 218  VoIPMCoAMulti.AP_2.eth[0]  framesReceivedOK  ETV
218	16783648 121007 817 387406 1.0100672 199.95447956098 3806 1 3806 7244721 18384686991
vector 220  VoIPMCoAMulti.AP_2.eth[0]  bytesReceivedOK  ETV
220	16904684 127992 817 387406 1.0100672 199.95447956098 3806 64 243584 463662144 75303677915136
vector 224  VoIPMCoAMulti.AP_2.eth[0]  framesPassedToHL  ETV
224	17032676 121007 817 387406 1.0100672 199.95447956098 3806 1 3806 7244721 18384686991
vector 99  VoIPMCoAMulti.AP_HA.relayUnit  "buffer level"  ETV
99	455353 244788 821 387466 1.0100672 199.986440994751 8686 0 562 344730 50743356
vector 193  VoIPMCoAMulti.AP_1.relayUnit  "buffer level"  ETV
193	9896491 224851 823 387490 1.0100672 199.989987940314 7604 0 64 243304 15570496
vector 211  VoIPMCoAMulti.AP_2.relayUnit  "buffer level"  ETV
211	13512293 225254 824 387408 1.0100672 199.95448156098 7614 0 64 243624 15590976
vector 100  VoIPMCoAMulti.AP_HA.wlan.mgmt  "queue length"  ETV
100	700141 2145 874 188636 1.0102036 93.081225345445 82 0 16 311 3137
vector 194  VoIPMCoAMulti.AP_1.wlan.mgmt  "queue length"  ETV
194	10121342 892 875 1446 1.0102036 1.019769745439 38 0 16 295 3055
vector 212  VoIPMCoAMulti.AP_2.wlan.mgmt  "queue length"  ETV
212	13737547 943 876 1497 1.0102036 1.02104556362 40 0 18 356 4272
vector 233  VoIPMCoAMulti.Rb.eth[0].mac  framesReceivedOK  ETV
233	17163748 5186 1460 376635 1.0200672 194.101691804142 192 1 192 18528 2377760
vector 235  VoIPMCoAMulti.Rb.eth[0].mac  bytesReceivedOK  ETV
235	17179685 5623 1460 376635 1.0200672 194.101691804142 192 64 38128 4159882 118323039044
vector 239  VoIPMCoAMulti.Rb.eth[0].mac  framesPassedToHL  ETV
239	17185308 5186 1460 376635 1.0200672 194.101691804142 192 1 192 18528 2377760
vector 32  VoIPMCoAMulti.Ra.eth[2].mac  framesReceivedOK  ETV
32	50018 9429 1461 376377 1.0200672 194.0402144 384 1 384 73920 18948160
vector 34  VoIPMCoAMulti.Ra.eth[2].mac  bytesReceivedOK  ETV
34	64877 10368 1461 376377 1.0200672 194.0402144 384 64 110408 24625732 2032008030384
vector 38  VoIPMCoAMulti.Ra.eth[2].mac  framesPassedToHL  ETV
38	75245 9429 1461 376377 1.0200672 194.0402144 384 1 384 73920 18948160
vector 247  VoIPMCoAMulti.Rb.eth[1].mac  framesReceivedOK  ETV
247	17196581 9843 1462 376349 1.0200672 194.0201072 388 1 388 75466 19545694
vector 249  VoIPMCoAMulti.Rb.eth[1].mac  bytesReceivedOK  ETV
249	17212203 10790 1462 376349 1.0200672 194.0201072 388 64 110664 24749944 2045930910152
vector 253  VoIPMCoAMulti.Rb.eth[1].mac  framesPassedToHL  ETV
253	17222993 9843 1462 376349 1.0200672 194.0201072 388 1 388 75466 19545694
vector 52  VoIPMCoAMulti.CN[0].eth[0].mac  framesReceivedOK  ETV
52	109052 5114 1463 376662 1.0200672 194.121799004142 194 1 194 18915 2452645
vector 54  VoIPMCoAMulti.CN[0].eth[0].mac  bytesReceivedOK  ETV
54	124763 5552 1463 376662 1.0200672 194.121799004142 194 64 38206 4160210 118529544644
vector 58  VoIPMCoAMulti.CN[0].eth[0].mac  framesPassedToHL  ETV
58	130315 5114 1463 376662 1.0200672 194.121799004142 194 1 194 18915 2452645
vector 149  VoIPMCoAMulti.MN[1].wlan[0].radio  "MAC loss rate"  ETV
149	9392586 4177 6353 384627 3.976739013338 198.3871367662 144 0 0.02 0.02 0.0004
vector 105  VoIPMCoAMulti.AP_HA.eth[0]  framesSent  ETV
105	4302937 2341 6859 383947 4.122146639142 198.06165109016 79 1 79 3160 167480
vector 107  VoIPMCoAMulti.AP_HA.eth[0]  bytesSent  ETV
107	4439133 2493 6859 383947 4.122146639142 198.06165109016 79 40 6952 267920 1246798592
vector 88  VoIPMCoAMulti.HA.eth[1].mac  framesReceivedOK  ETV
88	310449 2262 6900 383988 4.132146639142 198.07165109016 79 1 79 3160 167480
vector 90  VoIPMCoAMulti.HA.eth[1].mac  bytesReceivedOK  ETV
90	450677 2414 6900 383988 4.132146639142 198.07165109016 79 40 6952 267920 1246798592
vector 94  VoIPMCoAMulti.HA.eth[1].mac  framesPassedToHL  ETV
94	453091 2262 6900 383988 4.132146639142 198.07165109016 79 1 79 3160 167480
vector 117  VoIPMCoAMulti.MN[0].udpApp[0]  "MCOA VIDEO Packet Rcv"  ETV
117	4717722 2435 6977 136699 4.143130285986 69.062374912166 83 7 139 5527 540685
vector 119  VoIPMCoAMulti.MN[0].udpApp[0]  "MCOA VIDEO Delay"  ETV
119	4720240 3548 6977 136699 4.143130285986 69.062374912166 83 0.062150032039 1.143130285986 8.484380646751 3.5632672966227
vector 118  VoIPMCoAMulti.MN[0].udpApp[0]  "MCOA VIDEO Packet Lost"  ETV
118	4720157 83 6977 106900 4.143130285986 55.582862980776 3 2 50 59 2553
vector 129  VoIPMCoAMulti.MN[0].wlan[0].radio  "MAC loss rate"  ETV
129	5838678 1564 8211 387277 4.735155690365 199.885024231637 54 0 0 0 0
vector 286  VoIPMCoAMulti.MN[0].networkLayer.xMobileIPv6  "BU to HA"  ETV
286	17233546 26 8307 8307 4.796700161804 4.796700161804 1 1 1 1 1
vector 276  VoIPMCoAMulti.HA.networkLayer.xMobileIPv6  "BA to MN"  ETV
276	17233364 26 8441 8441 4.807095147698 4.807095147698 1 1 1 1 1
vector 290  VoIPMCoAMulti.MN[0].networkLayer.xMobileIPv6  "BA from HA"  ETV
290	17233572 26 8487 8487 4.817473988137 4.817473988137 1 2 2 2 4
vector 49  VoIPMCoAMulti.CN[0].eth[0].queue  "queue length"  ETV
49	95861 3564 14849 362582 8 187.0000672 192 0 2 98 100
vector 256  VoIPMCoAMulti.Rb.eth[1].mac  collisions  ETV
256	17232836 197 14905 362625 8.0200768 187.0200768 8 1 8 36 204
vector 257  VoIPMCoAMulti.Rb.eth[1].mac  backoffs  ETV
257	17233033 156 14906 362626 8.02008 187.02008 7 1 7 28 140
vector 61  VoIPMCoAMulti.CN[0].eth[0].mac  collisions  ETV
61	135429 189 14951 362671 8.0400768 187.0400768 8 1 8 36 204
vector 46  VoIPMCoAMulti.CN[0].pingApp  "PING: Ping Request"  ETV
46	90834 3087 18618 376301 10 194 185 0 184 17020 2093460
vector 47  VoIPMCoAMulti.CN[0].pingApp  "PING: Ping Reply"  ETV
47	93921 1931 19313 376666 10.222462102222 194.121799004142 66 0 184 6172 919140
vector 44  VoIPMCoAMulti.CN[0].pingApp  pingRTT  ETV
44	88025 2687 19313 376666 10.222462102222 194.121799004142 66 0.121779483174 0.646815148704 8.704995976536 1.4276374766155
vector 104  VoIPMCoAMulti.AP_HA.wlan.radio  "MAC loss rate"  ETV
104	4302794 143 25260 351160 13.061502597224 181.061723090124 5 0 0 0 0
vector 199  VoIPMCoAMulti.AP_1.eth[0]  framesSent  ETV
199	13142882 28 28596 28596 14.527664037521 14.527664037521 1 1 1 1 1
vector 201  VoIPMCoAMulti.AP_1.eth[0]  bytesSent  ETV
201	13263703 29 28596 28596 14.527664037521 14.527664037521 1 40 40 40 1600
vector 134  VoIPMCoAMulti.MN[0].wlan[1].radio  "MAC loss rate"  ETV
134	6708354 1226 28598 184045 14.527872824775 90.971688017553 43 0 0 0 0
vector 168  VoIPMCoAMulti.R1.eth[1].mac  framesReceivedOK  ETV
168	9518629 28 28622 28622 14.537664037521 14.537664037521 1 1 1 1 1
vector 170  VoIPMCoAMulti.R1.eth[1].mac  bytesReceivedOK  ETV
170	9646414 29 28622 28622 14.537664037521 14.537664037521 1 40 40 40 1600
vector 174  VoIPMCoAMulti.R1.eth[1].mac  framesPassedToHL  ETV
174	9646443 28 28622 28622 14.537664037521 14.537664037521 1 1 1 1 1
vector 139  VoIPMCoAMulti.MN[0].wlan[2].radio  "MAC loss rate"  ETV
139	7179514 140 73794 90989 38.460773184505 48.290831302438 5 0 0 0 0
vector 230  VoIPMCoAMulti.Rb.eth[0].queue  "queue length"  ETV
230	17153693 243 73947 352965 38.5203888 182.0201744 10 0 1 5 5
vector 217  VoIPMCoAMulti.AP_2.eth[0]  framesSent  ETV
217	16783620 28 74493 74493 38.730344718522 38.730344718522 1 1 1 1 1
vector 219  VoIPMCoAMulti.AP_2.eth[0]  bytesSent  ETV
219	16904655 29 74493 74493 38.730344718522 38.730344718522 1 40 40 40 1600
vector 182  VoIPMCoAMulti.R1.eth[2].mac  framesReceivedOK  ETV
182	9768426 28 74548 74548 38.740344718522 38.740344718522 1 1 1 1 1
vector 184  VoIPMCoAMulti.R1.eth[2].mac  bytesReceivedOK  ETV
184	9896434 29 74548 74548 38.740344718522 38.740344718522 1 40 40 40 1600
vector 188  VoIPMCoAMulti.R1.eth[2].mac  framesPassedToHL  ETV
188	9896463 28 74548 74548 38.740344718522 38.740344718522 1 1 1 1 1
vector 71  VoIPMCoAMulti.HA.eth[0].queue  "queue length"  ETV
71	135684 4094 85140 337589 45.5511664 174.072125070936 178 0 8 457 2093
vector 29  VoIPMCoAMulti.Ra.eth[2].queue  "queue length"  ETV
29	44313 712 85216 201962 45.5617264 100.062704 32 0 1 16 16
vector 244  VoIPMCoAMulti.Rb.eth[1].queue  "queue length"  ETV
244	17190494 748 85333 202082 45.5821472 100.0831248 32 0 1 16 16
vector 45  VoIPMCoAMulti.CN[0].pingApp  pingDrop  ETV
45	90712 122 107168 364788 55.646815148704 188.121859238138 4 25 119 379 42399
vector 62  VoIPMCoAMulti.CN[0].eth[0].mac  backoffs  ETV
62	135618 29 339702 339702 175.122422052009 175.122422052009 1 1 1 1 1
