version 2
run One-0-20150309-22:20:03-23652
attr configname One
attr datetime 20150309-22:20:03
attr experiment One
attr inifile omnetpp.ini
attr iterationvars ""
attr iterationvars2 $repetition=0
attr measurement ""
attr network mIPv6Network
attr processid 23652
attr repetition 0
attr replication #0
attr resultdir results
attr runnumber 0
attr seedset 0

vector 0  mIPv6Network.Home_Agent.networkLayer.ipv6  IPv6Active_Event  ETV
vector 29  mIPv6Network.R_1.networkLayer.ipv6  IPv6Active_Event  ETV
vector 58  mIPv6Network.R_2.networkLayer.ipv6  IPv6Active_Event  ETV
vector 105  mIPv6Network.MN[0].networkLayer.ipv6  IPv6Active_Event  ETV
vector 115  mIPv6Network.CN[0].networkLayer.ipv6  IPv6Active_Event  ETV
vector 134  mIPv6Network.CN[1].networkLayer.ipv6  IPv6Active_Event  ETV
vector 109  mIPv6Network.MN[0].wlan.mac  RadioState  ETV
attr enum  "IDLE=0, RECV=1, SLEEP=3, TRANSMIT=2"
attr enumname  RadioState
vector 108  mIPv6Network.MN[0].wlan.mac  State  ETV
attr enum  "BACKOFF=3, DEFER=1, IDLE=0, RECEIVE=8, WAITACK=4, WAITBROADCAST=5, WAITCTS=6, WAITDIFS=2, WAITSIFS=7"
attr enumname  Ieee80211Mac
vector 153  mIPv6Network.AP_Home.wlan.mac  RadioState  ETV
attr enum  "IDLE=0, RECV=1, SLEEP=3, TRANSMIT=2"
attr enumname  RadioState
vector 152  mIPv6Network.AP_Home.wlan.mac  State  ETV
attr enum  "BACKOFF=3, DEFER=1, IDLE=0, RECEIVE=8, WAITACK=4, WAITBROADCAST=5, WAITCTS=6, WAITDIFS=2, WAITSIFS=7"
attr enumname  Ieee80211Mac
vector 171  mIPv6Network.AP_1.wlan.mac  RadioState  ETV
attr enum  "IDLE=0, RECV=1, SLEEP=3, TRANSMIT=2"
attr enumname  RadioState
vector 170  mIPv6Network.AP_1.wlan.mac  State  ETV
attr enum  "BACKOFF=3, DEFER=1, IDLE=0, RECEIVE=8, WAITACK=4, WAITBROADCAST=5, WAITCTS=6, WAITDIFS=2, WAITSIFS=7"
attr enumname  Ieee80211Mac
vector 44  mIPv6Network.R_1.eth[1].queue  "queue length"  ETV
vector 199  mIPv6Network.R_2.networkLayer.neighbourDiscovery  "Starting DAD"  ETV
vector 226  mIPv6Network.CN[1].networkLayer.neighbourDiscovery  "Starting DAD"  ETV
vector 198  mIPv6Network.R_1.networkLayer.neighbourDiscovery  "Starting DAD"  ETV
vector 15  mIPv6Network.Home_Agent.eth[1].queue  "queue length"  ETV
vector 200  mIPv6Network.MN[0].networkLayer.neighbourDiscovery  "Starting DAD"  ETV
vector 185  mIPv6Network.Home_Agent.networkLayer.neighbourDiscovery  "Starting DAD"  ETV
vector 213  mIPv6Network.CN[0].networkLayer.neighbourDiscovery  "Starting DAD"  ETV
vector 45  mIPv6Network.R_1.eth[1].queue  drops  ETV
vector 16  mIPv6Network.Home_Agent.eth[1].queue  drops  ETV
vector 128  mIPv6Network.CN[0].eth[0].mac  collisions  ETV
vector 147  mIPv6Network.CN[1].eth[0].mac  collisions  ETV
vector 99  mIPv6Network.R_2.eth[2].mac  collisions  ETV
vector 129  mIPv6Network.CN[0].eth[0].mac  backoffs  ETV
vector 148  mIPv6Network.CN[1].eth[0].mac  backoffs  ETV
vector 100  mIPv6Network.R_2.eth[2].mac  backoffs  ETV
vector 3  mIPv6Network.Home_Agent.eth[0].mac  framesSent  ETV
vector 5  mIPv6Network.Home_Agent.eth[0].mac  bytesSent  ETV
vector 17  mIPv6Network.Home_Agent.eth[1].mac  framesSent  ETV
vector 19  mIPv6Network.Home_Agent.eth[1].mac  bytesSent  ETV
vector 32  mIPv6Network.R_1.eth[0].mac  framesSent  ETV
vector 34  mIPv6Network.R_1.eth[0].mac  bytesSent  ETV
vector 46  mIPv6Network.R_1.eth[1].mac  framesSent  ETV
vector 48  mIPv6Network.R_1.eth[1].mac  bytesSent  ETV
vector 61  mIPv6Network.R_2.eth[0].mac  framesSent  ETV
vector 63  mIPv6Network.R_2.eth[0].mac  bytesSent  ETV
vector 75  mIPv6Network.R_2.eth[1].mac  framesSent  ETV
vector 77  mIPv6Network.R_2.eth[1].mac  bytesSent  ETV
vector 76  mIPv6Network.R_2.eth[1].mac  framesReceivedOK  ETV
vector 78  mIPv6Network.R_2.eth[1].mac  bytesReceivedOK  ETV
vector 82  mIPv6Network.R_2.eth[1].mac  framesPassedToHL  ETV
vector 156  mIPv6Network.AP_Home.eth[0]  framesReceivedOK  ETV
vector 158  mIPv6Network.AP_Home.eth[0]  bytesReceivedOK  ETV
vector 162  mIPv6Network.AP_Home.eth[0]  framesPassedToHL  ETV
vector 62  mIPv6Network.R_2.eth[0].mac  framesReceivedOK  ETV
vector 64  mIPv6Network.R_2.eth[0].mac  bytesReceivedOK  ETV
vector 68  mIPv6Network.R_2.eth[0].mac  framesPassedToHL  ETV
vector 174  mIPv6Network.AP_1.eth[0]  framesReceivedOK  ETV
vector 176  mIPv6Network.AP_1.eth[0]  bytesReceivedOK  ETV
vector 180  mIPv6Network.AP_1.eth[0]  framesPassedToHL  ETV
vector 33  mIPv6Network.R_1.eth[0].mac  framesReceivedOK  ETV
vector 35  mIPv6Network.R_1.eth[0].mac  bytesReceivedOK  ETV
vector 39  mIPv6Network.R_1.eth[0].mac  framesPassedToHL  ETV
vector 4  mIPv6Network.Home_Agent.eth[0].mac  framesReceivedOK  ETV
vector 6  mIPv6Network.Home_Agent.eth[0].mac  bytesReceivedOK  ETV
vector 10  mIPv6Network.Home_Agent.eth[0].mac  framesPassedToHL  ETV
vector 149  mIPv6Network.AP_Home.relayUnit  "buffer level"  ETV
vector 167  mIPv6Network.AP_1.relayUnit  "buffer level"  ETV
vector 137  mIPv6Network.CN[1].eth[0].mac  framesSent  ETV
vector 139  mIPv6Network.CN[1].eth[0].mac  bytesSent  ETV
vector 119  mIPv6Network.CN[0].eth[0].mac  framesReceivedOK  ETV
vector 121  mIPv6Network.CN[0].eth[0].mac  bytesReceivedOK  ETV
vector 125  mIPv6Network.CN[0].eth[0].mac  framesPassedToHL  ETV
vector 90  mIPv6Network.R_2.eth[2].mac  framesReceivedOK  ETV
vector 92  mIPv6Network.R_2.eth[2].mac  bytesReceivedOK  ETV
vector 96  mIPv6Network.R_2.eth[2].mac  framesPassedToHL  ETV
vector 150  mIPv6Network.AP_Home.wlan.mgmt  "queue length"  ETV
vector 168  mIPv6Network.AP_1.wlan.mgmt  "queue length"  ETV
vector 89  mIPv6Network.R_2.eth[2].mac  framesSent  ETV
vector 91  mIPv6Network.R_2.eth[2].mac  bytesSent  ETV
vector 138  mIPv6Network.CN[1].eth[0].mac  framesReceivedOK  ETV
vector 140  mIPv6Network.CN[1].eth[0].mac  bytesReceivedOK  ETV
vector 144  mIPv6Network.CN[1].eth[0].mac  framesPassedToHL  ETV
vector 118  mIPv6Network.CN[0].eth[0].mac  framesSent  ETV
vector 120  mIPv6Network.CN[0].eth[0].mac  bytesSent  ETV
vector 110  mIPv6Network.MN[0].wlan.radio  "MAC loss rate"  ETV
vector 155  mIPv6Network.AP_Home.eth[0]  framesSent  ETV
vector 157  mIPv6Network.AP_Home.eth[0]  bytesSent  ETV
vector 18  mIPv6Network.Home_Agent.eth[1].mac  framesReceivedOK  ETV
vector 20  mIPv6Network.Home_Agent.eth[1].mac  bytesReceivedOK  ETV
vector 24  mIPv6Network.Home_Agent.eth[1].mac  framesPassedToHL  ETV
vector 113  mIPv6Network.CN[0].pingApp  "PING: Ping Request"  ETV
0	0	0	1
3	473	1.000006719999	1
4	488	1.000006819999	1
5	473	1.000006719999	64
6	488	1.000006819999	64
10	488	1.000006819999	1
15	89	0.13078295523	1
15	106	0.158688476459	2
15	126	0.179242129741	3
15	139	0.23252292139	4
15	163	0.300309678134	5
15	172	0.346896155778	6
15	202	0.387478380234	7
15	207	0.426140394502	8
15	235	0.478877752435	9
15	244	0.514864746986	10
15	474	1.000006719999	9
15	516	1.000013439998	8
15	540	1.000020159997	7
15	560	1.000026879996	6
15	578	1.000033599995	5
15	597	1.000040319994	4
15	615	1.000047039993	3
15	636	1.000053759992	2
15	667	1.000060479991	1
15	685	1.00006719999	0
16	248	0.553757602406	1
16	273	0.608434962352	1
16	289	0.665707774265	1
16	306	0.720230312738	1
16	330	0.778135560554	1
16	339	0.834806229005	1
16	367	0.891631743952	1
16	376	0.951659189506	1
17	474	1.000006719999	1
17	516	1.000013439998	2
17	540	1.000020159997	3
17	560	1.000026879996	4
17	578	1.000033599995	5
17	597	1.000040319994	6
17	615	1.000047039993	7
17	636	1.000053759992	8
17	667	1.000060479991	9
17	685	1.00006719999	10
17	705	1.000073919989	11
17	833	1.005979136173	12
17	922	1.049499440873	13
17	958	1.083383491719	14
17	999	1.117227427763	15
17	1027	1.165973475695	16
17	1075	1.198202063411	17
17	1096	1.229769574969	18
17	1164	1.271081853347	19
17	1214	1.328628300797	20
17	1242	1.361194200837	21
17	1291	1.413801755462	22
17	1358	1.464731677578	23
17	1408	1.531903525491	24
17	1457	1.567175439971	25
17	1486	1.604503094509	26
17	1527	1.63530739653	27
17	1555	1.665495215813	28
17	1604	1.718279951988	29
17	1680	1.786767493784	30
17	1722	1.839657569843	31
17	1779	1.907767530212	32
17	1830	1.965746701311	33
17	1881	2.011606930864	34
17	1921	2.054135664149	35
17	1979	2.107674267484	36
17	2019	2.146895588409	37
17	2075	2.193849790166	38
17	2120	2.235912782815	39
17	2196	2.277515887212	40
17	2217	2.31163042161	41
17	2335	2.345325377074	42
17	2391	2.388165266823	43
17	2432	2.422055663887	44
17	2460	2.462469301029	45
17	2529	2.520624844451	46
17	2577	2.569394811317	47
17	2626	2.63411985374	48
17	2695	2.670793754457	49
17	2744	2.733086512869	50
17	2800	2.764415408324	51
17	2839	2.823297632529	52
17	2925	2.862527326193	53
17	2981	2.924275234291	54
17	3048	2.978605348994	55
17	3097	3.036569272098	56
17	3164	3.093732896824	57
17	3212	3.132228516903	58
17	3278	3.185011458177	59
17	3299	3.218423280859	60
17	3347	3.250680014242	61
17	3404	3.308533753671	62
17	3444	3.339520902822	63
17	3590	3.396696613852	64
17	3655	3.451855887809	65
17	3723	3.517067791988	66
17	3770	3.553215564126	67
17	3837	3.591810793587	68
17	3865	3.632886543673	69
17	3932	3.691065514142	70
17	3980	3.726058836577	71
17	4067	3.785938606082	72
17	4115	3.824304887202	73
17	4142	3.856826418904	74
17	4209	3.887196021709	75
17	4258	3.937691760328	76
17	4325	3.981218118569	77
17	4354	4.043186221955	78
17	4441	4.093111831092	79
17	4489	4.154328897057	80
17	4536	4.184490821279	81
17	4584	4.22640449415	82
17	4651	4.295632481091	83
17	4699	4.342087377701	84
17	4766	4.384160612672	85
17	4814	4.414718548599	86
17	4881	4.480032948534	87
17	4929	4.540118329253	88
17	4996	4.573980313826	89
17	5044	4.622320895975	90
17	5111	4.686426292916	91
17	5180	4.742827887383	92
17	5227	4.779962581523	93
17	5295	4.817844752628	94
17	5374	4.866624684841	95
17	5409	4.898039182289	96
17	5457	4.949486282267	97
17	5524	4.992513672927	98
17	5620	5.0407901298	99
17	5687	5.099439896673	100
17	5789	5.16780656079	101
17	5865	5.23063724558	102
17	5912	5.27657461593	103
17	5980	5.336264135037	104
17	6019	5.366917275227	105
17	6074	5.400901872272	106
17	6122	5.439057337262	107
17	6149	5.44396990774	108
17	6216	5.499963186707	109
17	6264	5.530444635634	110
17	6331	5.575417563437	111
17	6379	5.644993954427	112
17	6426	5.677811841997	113
17	6474	5.728504182523	114
17	6561	5.791406560394	115
17	6609	5.830711640019	116
17	6676	5.875982032028	117
17	6724	5.910218278366	118
17	6771	5.955627775295	119
17	6818	5.996525251204	120
17	6886	6.058346641082	121
17	6933	6.097856314023	122
17	6981	6.148642027051	123
17	7068	6.21736064989	124
17	7135	6.275203736628	125
17	7183	6.327079132495	126
17	7242	6.365700285078	127
17	7297	6.396720179223	128
17	7377	6.462514707014	129
17	7433	6.528574026642	130
17	7500	6.578999182754	131
17	7548	6.622667107297	132
17	7595	6.658597852907	133
17	7642	6.688913217012	134
17	7690	6.739021598791	135
17	7757	6.793910841244	136
17	7805	6.845473783147	137
17	7892	6.901361649223	138
17	7940	6.958765329001	139
17	7986	6.992655045976	140
17	8034	7.041095319119	141
17	8122	7.106573750347	142
17	8169	7.158258928589	143
17	8237	7.226990385174	144
17	8304	7.27950171014	145
17	8332	7.315910929028	146
17	8411	7.370932048117	147
17	8467	7.419918767498	148
17	8534	7.478527080766	149
17	8582	7.523656887835	150
17	8641	7.565382664002	151
17	8697	7.62070514438	152
17	8744	7.674388371047	153
17	8792	7.718124040078	154
17	8839	7.74962664201	155
17	8906	7.805129949861	156
17	8954	7.846019124435	157
17	9021	7.885695192645	158
17	9069	7.928699909102	159
17	9136	7.992625924449	160
17	9184	8.053225702222	161
17	9251	8.087116022182	162
17	9279	8.152979272545	163
17	9346	8.187612632677	164
17	9394	8.236960891109	165
17	9461	8.293816230451	166
17	9509	8.338806338566	167
17	9576	8.394943184819	168
17	9604	8.436189303513	169
17	9690	8.495679473228	170
17	9738	8.552964231384	171
17	9805	8.599133975974	172
17	9865	8.659960955747	173
17	9920	8.700943957746	174
17	9968	8.751494347138	175
17	10035	8.803881643108	176
17	10083	8.850959379627	177
17	10151	8.911000245558	178
17	10210	8.967703977804	179
17	10286	9.023398047815	180
17	10353	9.073960226773	181
17	10421	9.1427894844	182
17	10488	9.200243966176	183
17	10536	9.252223989131	184
17	10604	9.311111349888	185
17	10671	9.375462448611	186
17	10719	9.441466533658	187
17	10806	9.503141716276	188
17	10834	9.552457381202	189
17	10902	9.613584244972	190
17	10989	9.672659363573	191
17	11037	9.725388067228	192
17	11104	9.786278690316	193
17	11152	9.83561443193	194
17	11219	9.893340544217	195
17	11267	9.959242254635	196
17	11337	10.007517640469	197
17	11384	10.053638680585	198
17	11451	10.089426326424	199
17	11479	10.128042254669	200
17	11538	10.164331138653	201
17	11594	10.216515274091	202
17	11673	10.267200765168	203
17	11709	10.319037469081	204
17	11789	10.372040581689	205
17	11823	10.408306721192	206
17	11909	10.473715012226	207
17	11957	10.515028486301	208
17	12016	10.568452221567	209
17	12052	10.612816647852	210
17	12139	10.675200383041	211
17	12167	10.734302262879	212
17	12234	10.779342033491	213
17	12302	10.815002292739	214
17	12361	10.864878882653	215
17	12417	10.925405482862	216
17	12484	10.973939243692	217
17	12512	11.017318193229	218
17	12559	11.053897729633	219
17	12606	11.087755764085	220
17	12674	11.15730572415	221
17	12742	11.20670435022	222
17	12809	11.275263379024	223
17	12857	11.30925269686	224
17	12924	11.376544509374	225
17	12972	11.409298587918	226
17	13004	11.459448500482	227
17	13066	11.518559351183	228
17	13133	11.576596473922	229
17	13181	11.642174390229	230
17	13248	11.691838047365	231
17	13296	11.724605353744	232
17	13363	11.793408477724	233
17	13411	11.83501839943	234
17	13470	11.865405732139	235
17	13506	11.90984311083	236
17	13553	11.956395151565	237
17	13620	11.995577849183	238
17	13668	12.044766135481	239
17	13735	12.075168683253	240
17	13763	12.109803141573	241
17	13830	12.177950169615	242
17	13898	12.235892466021	243
17	13965	12.296022070835	244
17	14045	12.363265134443	245
17	14080	12.403373131912	246
17	14128	12.443421610371	247
17	14215	12.484033743348	248
17	14263	12.526041321707	249
17	14330	12.590171160892	250
17	14358	12.636721498135	251
17	14425	12.676032405018	252
17	14493	12.71520344882	253
17	14520	12.748535088139	254
17	14607	12.804584190674	255
17	14667	12.862244515107	256
17	14723	12.913071626839	257
17	14790	12.981765138725	258
17	14838	13.021830208948	259
17	14925	13.082026253346	260
17	14973	13.116739042777	261
17	15000	13.157375268007	262
17	15068	13.218323684001	263
17	15115	13.256435525446	264
17	15203	13.31208084275	265
17	15242	13.364184095896	266
17	15298	13.419417368312	267
17	15345	13.454538203206	268
17	15412	13.501035545177	269
17	15472	13.56017789452	270
17	15527	13.599026619732	271
17	15575	13.640092608952	272
17	15642	13.700877959574	273
17	15702	13.769100695237	274
17	15758	13.829141987034	275
17	15797	13.863285125636	276
17	15853	13.925232695576	277
17	15920	13.974683578975	278
17	15968	14.028491475872	279
17	16035	14.095507276934	280
17	16083	14.135411988702	281
17	16149	14.198058018787	282
17	16217	14.25497358514	283
17	16284	14.297314703324	284
17	16332	14.345751079012	285
17	16420	14.407794074116	286
17	16447	14.44022976319	287
17	16514	14.501160128495	288
17	16562	14.546383943433	289
17	16630	14.60668020587	290
17	16677	14.642245537438	291
17	16744	14.698813421683	292
17	16792	14.754666588933	293
17	16880	14.808110906707	294
17	16907	14.857151032995	295
17	16975	14.911083671936	296
17	17022	14.946901096237	297
17	17089	14.999845485949	298
17	17160	15.042446370032	299
17	17207	15.092530593388	300
17	17255	15.140164493276	301
17	17322	15.197169529786	302
17	17402	15.264643317302	303
17	17458	15.309302514893	304
17	17545	15.377628343551	305
17	17593	15.439446604492	306
17	17660	15.479545532472	307
17	17708	15.525394442172	308
17	17767	15.561537742584	309
17	17803	15.605982001868	310
17	17862	15.670775924741	311
17	17918	15.710823929269	312
17	17965	15.744087173478	313
17	18032	15.804814959927	314
17	18080	15.835898089003	315
17	18147	15.897145802699	316
17	18195	15.959255149042	317
17	18262	16.012358752697	318
17	18349	16.074887694374	319
17	18397	16.143162517	320
17	18464	16.195950758682	321
17	18512	16.256202247712	322
17	18600	16.322888326366	323
17	18666	16.374490244742	324
17	18694	16.406975477011	325
17	18761	16.475298164085	326
17	18809	16.53135684653	327
17	18868	16.569407517218	328
17	18903	16.600415128913	329
17	18951	16.638422724237	330
17	19038	16.699266400239	331
17	19066	16.731246390114	332
17	19153	16.795660872817	333
17	19213	16.863428981475	334
17	19269	16.913165259904	335
17	19336	16.978555852773	336
17	19384	17.017280973468	337
17	19451	17.075643005801	338
17	19479	17.107421719405	339
17	19558	17.161723533804	340
17	19614	17.227808782635	341
17	19681	17.284924581264	342
17	19729	17.329722208957	343
17	19776	17.372581126204	344
17	19824	17.409658545421	345
17	19871	17.441180332505	346
17	19938	17.496615044052	347
17	19986	17.552929529283	348
17	20053	17.598391067558	349
17	20101	17.646262800316	350
17	20169	17.715117191965	351
17	20228	17.768663678052	352
17	20284	17.82954091282	353
17	20351	17.872231320537	354
17	20399	17.907020338301	355
17	20451	17.959351675037	356
17	20512	17.992829888781	357
17	20560	18.052355950597	358
17	20627	18.090994333095	359
17	20655	18.132924165	360
17	20714	18.165821079416	361
17	20770	18.229624519701	362
17	20837	18.298770699183	363
17	20885	18.330468878893	364
17	20952	18.37790419949	365
17	21000	18.436799860287	366
17	21067	18.488678390539	367
17	21135	18.549435168017	368
17	21203	18.611586835371	369
17	21282	18.671200723299	370
17	21318	18.719306864501	371
17	21365	18.755170214087	372
17	21452	18.805240920124	373
17	21512	18.868333449059	374
17	21588	18.921921921719	375
17	21615	18.956410894414	376
17	21703	19.020291588279	377
17	21770	19.084106169064	378
17	21818	19.115854796199	379
17	21845	19.149925606688	380
17	21933	19.21796969694	381
17	21980	19.279927823468	382
17	22048	19.349224153895	383
17	22115	19.398037004999	384
17	22143	19.442888795954	385
17	22210	19.490041187002	386
17	22258	19.554442249877	387
17	22325	19.595700398968	388
17	22373	19.6486302691	389
17	22441	19.711769488914	390
17	22500	19.763984908213	391
17	22555	19.797353208095	392
17	22583	19.837257811512	393
17	22670	19.884067152832	394
17	22698	19.914473750517	395
17	22745	19.953723948607	396
17	22812	19.996418898477	397
17	22863	20.036629479051	398
17	22930	20.073661599818	399
17	22978	20.111501630002	400
17	23065	20.175456021416	401
17	23093	20.209220918768	402
17	23152	20.262859681953	403
17	23206	20.294422450332	404
17	23254	20.350905147116	405
17	23321	20.405552467019	406
17	23369	20.450007316865	407
17	23437	20.511546052409	408
17	23496	20.566418450021	409
17	23552	20.627371760972	410
17	23611	20.668558701194	411
17	23667	20.71389395726	412
17	23694	20.75854495504	413
17	23781	20.799199770754	414
17	23841	20.862839431892	415
17	23897	20.927602922822	416
17	23964	20.982812395653	417
17	24032	21.032912771504	418
17	24099	21.102235161743	419
17	24147	21.151745744046	420
17	24194	21.192397332094	421
17	24262	21.25215484506	422
17	24329	21.302546788598	423
17	24409	21.366319869081	424
17	24481	21.424229004927	425
17	24524	21.469315443899	426
17	24580	21.518380012869	427
17	24639	21.566165027099	428
17	24715	21.6340273105	429
17	24782	21.682210905237	430
17	24830	21.739662941463	431
17	24877	21.783626435009	432
17	24945	21.837499215762	433
17	24992	21.880576905692	434
17	25040	21.911886421311	435
17	25119	21.968524477807	436
17	25155	22.020860878936	437
17	25202	22.051913732121	438
17	25269	22.093806736551	439
17	25297	22.148488145245	440
17	25385	22.210832470429	441
17	25444	22.263976869552	442
17	25500	22.317006983139	443
17	25559	22.368492599871	444
17	25614	22.400192184276	445
17	25642	22.436113731558	446
17	25709	22.490935074532	447
17	25757	22.527345471227	448
17	25816	22.562582863125	449
17	25872	22.629860979051	450
17	25931	22.665575221127	451
17	25967	22.71741879603	452
17	26019	22.759804150398	453
17	26080	22.795863590502	454
17	26128	22.855917447722	455
17	26216	22.908068090621	456
17	26243	22.940835482719	457
17	26310	23.000112693597	458
17	26358	23.035583491258	459
17	26445	23.091997035292	460
17	26493	23.144956783314	461
17	26560	23.184977606653	462
17	26608	23.22538770828	463
17	26667	23.260651582298	464
17	26723	23.319701313763	465
17	26770	23.356927738594	466
17	26838	23.414766707517	467
17	26897	23.467628715395	468
17	26953	23.529833814765	469
17	27020	23.57568119717	470
17	27068	23.637425078742	471
17	27155	23.698185035615	472
17	27215	23.766500981907	473
17	27251	23.810621365607	474
17	27310	23.86259529843	475
17	27365	23.904259165553	476
17	27425	23.964751042145	477
17	27479	24.001407090079	478
17	27527	24.037137219401	479
17	27594	24.09673471865	480
17	27642	24.151355994592	481
17	27710	24.219287864795	482
17	27771	24.271563774166	483
17	27825	24.32505723814	484
17	27886	24.371544484435	485
17	27960	24.422309761107	486
17	27987	24.457823013247	487
17	28073	24.516157423875	488
17	28107	24.559447380325	489
17	28168	24.604087301476	490
17	28196	24.650572415974	491
17	28263	24.688708249611	492
17	28311	24.738301104559	493
17	28378	24.791199113093	494
17	28426	24.837680089911	495
17	28485	24.869016381538	496
17	28541	24.911752498977	497
17	28608	24.97496036221	498
17	28659	25.010597044068	499
17	28726	25.080094443463	500
17	28774	25.128768934082	501
17	28841	25.18156382022	502
17	28889	25.243145352411	503
17	28956	25.296547392844	504
17	29024	25.352744607939	505
17	29092	25.413022020817	506
17	29159	25.481322412876	507
17	29207	25.549411045493	508
17	29274	25.588784929377	509
17	29342	25.636374741683	510
17	29409	25.681781342357	511
17	29437	25.723923296445	512
17	29524	25.78675792235	513
17	29572	25.853399958657	514
17	29660	25.921884749429	515
17	29727	25.991680825771	516
17	29755	26.032926249326	517
17	29842	26.090779196497	518
17	29870	26.122933960508	519
17	29957	26.191457715972	520
17	30005	26.230565971915	521
17	30072	26.278458887381	522
17	30100	26.31600710195	523
17	30181	26.371530485697	524
17	30214	26.402157530173	525
17	30262	26.451694853727	526
17	30329	26.497901295975	527
17	30377	26.544797595964	528
17	30424	26.580600911622	529
17	30492	26.643920450621	530
17	30559	26.703245514846	531
17	30607	26.737757045301	532
17	30674	26.788687674133	533
17	30722	26.838709172606	534
17	30789	26.878141709174	535
17	30837	26.943847301387	536
17	30904	27.002348226754	537
17	30952	27.049446682797	538
17	31020	27.108929100564	539
17	31087	27.177920591017	540
17	31155	27.237096009678	541
17	31202	27.276384399947	542
17	31250	27.315573743632	543
17	31309	27.360451135015	544
17	31364	27.395378320798	545
17	31412	27.431053011309	546
17	31479	27.48379539803	547
17	31527	27.525308748542	548
17	31594	27.591476437591	549
17	31642	27.622740655329	550
17	31674	27.659509818946	551
17	31735	27.697701073401	552
17	31783	27.751535391211	553
17	31850	27.789250619373	554
17	31898	27.858397924023	555
17	31945	27.890851745343	556
17	31993	27.930960444955	557
17	32060	27.975314908137	558
17	32108	28.041351544277	559
17	32175	28.104201048153	560
17	32223	28.158303486235	561
17	32291	28.22300672011	562
17	32338	28.258791582589	563
17	32405	28.31235551692	564
17	32464	28.371017690044	565
17	32520	28.406161455609	566
17	32567	28.4373353064	567
17	32634	28.489676230515	568
17	32682	28.523987383137	569
17	32741	28.569188766295	570
17	32797	28.614285973479	571
17	32864	28.673259212571	572
17	32932	28.732711720318	573
17	32999	28.775196560789	574
17	33027	28.810367368348	575
17	33086	28.861631601071	576
17	33141	28.904168421877	577
17	33189	28.952633996381	578
17	33257	29.014950223358	579
17	33316	29.06819005599	580
17	33372	29.131547442662	581
17	33431	29.168670078084	582
17	33487	29.218937631869	583
17	33554	29.288260306553	584
17	33622	29.354117991342	585
17	33690	29.418457093951	586
17	33749	29.467427765647	587
17	33785	29.50611444793	588
17	33832	29.542474840407	589
17	33899	29.587110526154	590
17	33947	29.630679358963	591
17	34014	29.674509192679	592
17	34042	29.710644170382	593
17	34109	29.758631947386	594
17	34156	29.798894683235	595
17	34204	29.832585866861	596
17	34270	29.883410754529	597
17	34318	29.926635437439	598
17	34405	29.993063907221	599
18	5565	5.000465133132	1
19	474	1.000006719999	64
19	516	1.000013439998	128
19	540	1.000020159997	192
19	560	1.000026879996	256
19	578	1.000033599995	320
19	597	1.000040319994	384
19	615	1.000047039993	448
19	636	1.000053759992	512
19	667	1.000060479991	576
19	685	1.00006719999	640
19	705	1.000073919989	704
19	833	1.005979136173	768
19	922	1.049499440873	832
19	958	1.083383491719	896
19	999	1.117227427763	960
19	1027	1.165973475695	1024
19	1075	1.198202063411	1088
19	1096	1.229769574969	1152
19	1164	1.271081853347	1216
19	1214	1.328628300797	1280
19	1242	1.361194200837	1344
19	1291	1.413801755462	1408
19	1358	1.464731677578	1472
19	1408	1.531903525491	1536
19	1457	1.567175439971	1600
19	1486	1.604503094509	1664
19	1527	1.63530739653	1728
19	1555	1.665495215813	1792
19	1604	1.718279951988	1856
19	1680	1.786767493784	1920
19	1722	1.839657569843	1984
19	1779	1.907767530212	2048
19	1830	1.965746701311	2112
19	1881	2.011606930864	2176
19	1921	2.054135664149	2240
19	1979	2.107674267484	2304
19	2019	2.146895588409	2368
19	2075	2.193849790166	2432
19	2120	2.235912782815	2496
19	2196	2.277515887212	2560
19	2217	2.31163042161	2624
19	2335	2.345325377074	2688
19	2391	2.388165266823	2752
19	2432	2.422055663887	2816
19	2460	2.462469301029	2880
19	2529	2.520624844451	2944
19	2577	2.569394811317	3008
19	2626	2.63411985374	3072
19	2695	2.670793754457	3136
19	2744	2.733086512869	3200
19	2800	2.764415408324	3264
19	2839	2.823297632529	3328
19	2925	2.862527326193	3392
19	2981	2.924275234291	3456
19	3048	2.978605348994	3520
19	3097	3.036569272098	3584
19	3164	3.093732896824	3648
19	3212	3.132228516903	3712
19	3278	3.185011458177	3776
19	3299	3.218423280859	3840
19	3347	3.250680014242	3904
19	3404	3.308533753671	3968
19	3444	3.339520902822	4032
19	3590	3.396696613852	4096
19	3655	3.451855887809	4160
19	3723	3.517067791988	4224
19	3770	3.553215564126	4288
19	3837	3.591810793587	4352
19	3865	3.632886543673	4416
19	3932	3.691065514142	4480
19	3980	3.726058836577	4544
19	4067	3.785938606082	4608
19	4115	3.824304887202	4672
19	4142	3.856826418904	4736
19	4209	3.887196021709	4800
19	4258	3.937691760328	4864
19	4325	3.981218118569	4928
19	4354	4.043186221955	4992
19	4441	4.093111831092	5056
19	4489	4.154328897057	5120
19	4536	4.184490821279	5184
19	4584	4.22640449415	5248
19	4651	4.295632481091	5312
19	4699	4.342087377701	5376
19	4766	4.384160612672	5440
19	4814	4.414718548599	5504
19	4881	4.480032948534	5568
19	4929	4.540118329253	5632
19	4996	4.573980313826	5696
19	5044	4.622320895975	5760
19	5111	4.686426292916	5824
19	5180	4.742827887383	5888
19	5227	4.779962581523	5952
19	5295	4.817844752628	6016
19	5374	4.866624684841	6080
19	5409	4.898039182289	6144
19	5457	4.949486282267	6208
19	5524	4.992513672927	6272
19	5620	5.0407901298	6336
19	5687	5.099439896673	6400
19	5789	5.16780656079	6464
19	5865	5.23063724558	6528
19	5912	5.27657461593	6592
19	5980	5.336264135037	6656
19	6019	5.366917275227	6720
19	6074	5.400901872272	6784
19	6122	5.439057337262	6848
19	6149	5.44396990774	6912
19	6216	5.499963186707	6976
19	6264	5.530444635634	7040
19	6331	5.575417563437	7104
19	6379	5.644993954427	7168
19	6426	5.677811841997	7232
19	6474	5.728504182523	7296
19	6561	5.791406560394	7360
19	6609	5.830711640019	7424
19	6676	5.875982032028	7488
19	6724	5.910218278366	7552
19	6771	5.955627775295	7616
19	6818	5.996525251204	7680
19	6886	6.058346641082	7744
19	6933	6.097856314023	7808
19	6981	6.148642027051	7872
19	7068	6.21736064989	7936
19	7135	6.275203736628	8000
19	7183	6.327079132495	8064
19	7242	6.365700285078	8128
19	7297	6.396720179223	8192
19	7377	6.462514707014	8256
19	7433	6.528574026642	8320
19	7500	6.578999182754	8384
19	7548	6.622667107297	8448
19	7595	6.658597852907	8512
19	7642	6.688913217012	8576
19	7690	6.739021598791	8640
19	7757	6.793910841244	8704
19	7805	6.845473783147	8768
19	7892	6.901361649223	8832
19	7940	6.958765329001	8896
19	7986	6.992655045976	8960
19	8034	7.041095319119	9024
19	8122	7.106573750347	9088
19	8169	7.158258928589	9152
19	8237	7.226990385174	9216
19	8304	7.27950171014	9280
19	8332	7.315910929028	9344
19	8411	7.370932048117	9408
19	8467	7.419918767498	9472
19	8534	7.478527080766	9536
19	8582	7.523656887835	9600
19	8641	7.565382664002	9664
19	8697	7.62070514438	9728
19	8744	7.674388371047	9792
19	8792	7.718124040078	9856
19	8839	7.74962664201	9920
19	8906	7.805129949861	9984
19	8954	7.846019124435	10048
19	9021	7.885695192645	10112
19	9069	7.928699909102	10176
19	9136	7.992625924449	10240
19	9184	8.053225702222	10304
19	9251	8.087116022182	10368
19	9279	8.152979272545	10432
19	9346	8.187612632677	10496
19	9394	8.236960891109	10560
19	9461	8.293816230451	10624
19	9509	8.338806338566	10688
19	9576	8.394943184819	10752
19	9604	8.436189303513	10816
19	9690	8.495679473228	10880
19	9738	8.552964231384	10944
19	9805	8.599133975974	11008
19	9865	8.659960955747	11072
19	9920	8.700943957746	11136
19	9968	8.751494347138	11200
19	10035	8.803881643108	11264
19	10083	8.850959379627	11328
19	10151	8.911000245558	11392
19	10210	8.967703977804	11456
19	10286	9.023398047815	11520
19	10353	9.073960226773	11584
19	10421	9.1427894844	11648
19	10488	9.200243966176	11712
19	10536	9.252223989131	11776
19	10604	9.311111349888	11840
19	10671	9.375462448611	11904
19	10719	9.441466533658	11968
19	10806	9.503141716276	12032
19	10834	9.552457381202	12096
19	10902	9.613584244972	12160
19	10989	9.672659363573	12224
19	11037	9.725388067228	12288
19	11104	9.786278690316	12352
19	11152	9.83561443193	12416
19	11219	9.893340544217	12480
19	11267	9.959242254635	12544
19	11337	10.007517640469	12608
19	11384	10.053638680585	12672
19	11451	10.089426326424	12736
19	11479	10.128042254669	12800
19	11538	10.164331138653	12864
19	11594	10.216515274091	12928
19	11673	10.267200765168	12992
19	11709	10.319037469081	13056
19	11789	10.372040581689	13120
19	11823	10.408306721192	13184
19	11909	10.473715012226	13248
19	11957	10.515028486301	13312
19	12016	10.568452221567	13376
19	12052	10.612816647852	13440
19	12139	10.675200383041	13504
19	12167	10.734302262879	13568
19	12234	10.779342033491	13632
19	12302	10.815002292739	13696