file 16995546 1425369943                                        
version 2
run MCoA_ALL-0-20150303-09:05:36-2838
attr configname MCoA_ALL
attr datetime 20150303-09:05:36
attr experiment MCoA_ALL
attr inifile VoIPMCoACN.ini
attr iterationvars ""
attr iterationvars2 $repetition=0
attr measurement ""
attr network VoIPMCoAMulti
attr processid 2838
attr repetition 0
attr replication #0
attr resultdir results
attr runnumber 0
attr seedset 0

vector 0  VoIPMCoAMulti.Ra.networkLayer.ipv6  IPv6Active_Event  ETV
vector 48  VoIPMCoAMulti.CN[0].networkLayer.ipv6  IPv6Active_Event  ETV
vector 63  VoIPMCoAMulti.HA.networkLayer.ipv6  IPv6Active_Event  ETV
vector 117  VoIPMCoAMulti.MN[0].networkLayer.ipv6  IPv6Active_Event  ETV
vector 137  VoIPMCoAMulti.MN[1].networkLayer.ipv6  IPv6Active_Event  ETV
vector 143  VoIPMCoAMulti.R1.networkLayer.ipv6  IPv6Active_Event  ETV
vector 222  VoIPMCoAMulti.Rb.networkLayer.ipv6  IPv6Active_Event  ETV
vector 96  VoIPMCoAMulti.AP_HA.wlan.mac  RadioState  ETV
attr enum  "IDLE=0, RECV=1, SLEEP=3, TRANSMIT=2"
attr enumname  RadioState
vector 95  VoIPMCoAMulti.AP_HA.wlan.mac  State  ETV
attr enum  "BACKOFF=3, DEFER=1, IDLE=0, RECEIVE=8, WAITACK=4, WAITBROADCAST=5, WAITCTS=6, WAITDIFS=2, WAITSIFS=7"
attr enumname  Ieee80211Mac
vector 121  VoIPMCoAMulti.MN[0].wlan[0].mac  RadioState  ETV
attr enum  "IDLE=0, RECV=1, SLEEP=3, TRANSMIT=2"
attr enumname  RadioState
vector 120  VoIPMCoAMulti.MN[0].wlan[0].mac  State  ETV
attr enum  "BACKOFF=3, DEFER=1, IDLE=0, RECEIVE=8, WAITACK=4, WAITBROADCAST=5, WAITCTS=6, WAITDIFS=2, WAITSIFS=7"
attr enumname  Ieee80211Mac
vector 126  VoIPMCoAMulti.MN[0].wlan[1].mac  RadioState  ETV
attr enum  "IDLE=0, RECV=1, SLEEP=3, TRANSMIT=2"
attr enumname  RadioState
vector 125  VoIPMCoAMulti.MN[0].wlan[1].mac  State  ETV
attr enum  "BACKOFF=3, DEFER=1, IDLE=0, RECEIVE=8, WAITACK=4, WAITBROADCAST=5, WAITCTS=6, WAITDIFS=2, WAITSIFS=7"
attr enumname  Ieee80211Mac
vector 131  VoIPMCoAMulti.MN[0].wlan[2].mac  RadioState  ETV
attr enum  "IDLE=0, RECV=1, SLEEP=3, TRANSMIT=2"
attr enumname  RadioState
vector 130  VoIPMCoAMulti.MN[0].wlan[2].mac  State  ETV
attr enum  "BACKOFF=3, DEFER=1, IDLE=0, RECEIVE=8, WAITACK=4, WAITBROADCAST=5, WAITCTS=6, WAITDIFS=2, WAITSIFS=7"
attr enumname  Ieee80211Mac
vector 141  VoIPMCoAMulti.MN[1].wlan[0].mac  RadioState  ETV
attr enum  "IDLE=0, RECV=1, SLEEP=3, TRANSMIT=2"
attr enumname  RadioState
vector 140  VoIPMCoAMulti.MN[1].wlan[0].mac  State  ETV
attr enum  "BACKOFF=3, DEFER=1, IDLE=0, RECEIVE=8, WAITACK=4, WAITBROADCAST=5, WAITCTS=6, WAITDIFS=2, WAITSIFS=7"
attr enumname  Ieee80211Mac
vector 190  VoIPMCoAMulti.AP_1.wlan.mac  RadioState  ETV
attr enum  "IDLE=0, RECV=1, SLEEP=3, TRANSMIT=2"
attr enumname  RadioState
vector 189  VoIPMCoAMulti.AP_1.wlan.mac  State  ETV
attr enum  "BACKOFF=3, DEFER=1, IDLE=0, RECEIVE=8, WAITACK=4, WAITBROADCAST=5, WAITCTS=6, WAITDIFS=2, WAITSIFS=7"
attr enumname  Ieee80211Mac
vector 208  VoIPMCoAMulti.AP_2.wlan.mac  RadioState  ETV
attr enum  "IDLE=0, RECV=1, SLEEP=3, TRANSMIT=2"
attr enumname  RadioState
vector 207  VoIPMCoAMulti.AP_2.wlan.mac  State  ETV
attr enum  "BACKOFF=3, DEFER=1, IDLE=0, RECEIVE=8, WAITACK=4, WAITBROADCAST=5, WAITCTS=6, WAITDIFS=2, WAITSIFS=7"
attr enumname  Ieee80211Mac
vector 43  VoIPMCoAMulti.CN[0].udpApp[0]  "MCOA VIDEO Packet Sent"  ETV
vector 305  VoIPMCoAMulti.Rb.networkLayer.neighbourDiscovery  "Starting DAD"  ETV
vector 172  VoIPMCoAMulti.R1.eth[2].queue  "queue length"  ETV
vector 78  VoIPMCoAMulti.HA.eth[1].queue  "queue length"  ETV
vector 158  VoIPMCoAMulti.R1.eth[1].queue  "queue length"  ETV
vector 304  VoIPMCoAMulti.R1.networkLayer.neighbourDiscovery  "Starting DAD"  ETV
vector 265  VoIPMCoAMulti.HA.networkLayer.neighbourDiscovery  "Starting DAD"  ETV
vector 251  VoIPMCoAMulti.Ra.networkLayer.neighbourDiscovery  "Starting DAD"  ETV
vector 291  VoIPMCoAMulti.MN[1].networkLayer.neighbourDiscovery  "Starting DAD"  ETV
vector 252  VoIPMCoAMulti.CN[0].networkLayer.neighbourDiscovery  "Starting DAD"  ETV
vector 278  VoIPMCoAMulti.MN[0].networkLayer.neighbourDiscovery  "Starting DAD"  ETV
vector 3  VoIPMCoAMulti.Ra.eth[0].mac  framesSent  ETV
vector 5  VoIPMCoAMulti.Ra.eth[0].mac  bytesSent  ETV
vector 17  VoIPMCoAMulti.Ra.eth[1].mac  framesSent  ETV
vector 19  VoIPMCoAMulti.Ra.eth[1].mac  bytesSent  ETV
vector 31  VoIPMCoAMulti.Ra.eth[2].mac  framesSent  ETV
vector 33  VoIPMCoAMulti.Ra.eth[2].mac  bytesSent  ETV
vector 51  VoIPMCoAMulti.CN[0].eth[0].mac  framesSent  ETV
vector 53  VoIPMCoAMulti.CN[0].eth[0].mac  bytesSent  ETV
vector 66  VoIPMCoAMulti.HA.eth[0].mac  framesSent  ETV
vector 68  VoIPMCoAMulti.HA.eth[0].mac  bytesSent  ETV
vector 80  VoIPMCoAMulti.HA.eth[1].mac  framesSent  ETV
vector 82  VoIPMCoAMulti.HA.eth[1].mac  bytesSent  ETV
vector 146  VoIPMCoAMulti.R1.eth[0].mac  framesSent  ETV
vector 148  VoIPMCoAMulti.R1.eth[0].mac  bytesSent  ETV
vector 160  VoIPMCoAMulti.R1.eth[1].mac  framesSent  ETV
vector 162  VoIPMCoAMulti.R1.eth[1].mac  bytesSent  ETV
vector 174  VoIPMCoAMulti.R1.eth[2].mac  framesSent  ETV
vector 176  VoIPMCoAMulti.R1.eth[2].mac  bytesSent  ETV
vector 225  VoIPMCoAMulti.Rb.eth[0].mac  framesSent  ETV
vector 227  VoIPMCoAMulti.Rb.eth[0].mac  bytesSent  ETV
vector 239  VoIPMCoAMulti.Rb.eth[1].mac  framesSent  ETV
vector 241  VoIPMCoAMulti.Rb.eth[1].mac  bytesSent  ETV
vector 67  VoIPMCoAMulti.HA.eth[0].mac  framesReceivedOK  ETV
vector 69  VoIPMCoAMulti.HA.eth[0].mac  bytesReceivedOK  ETV
vector 73  VoIPMCoAMulti.HA.eth[0].mac  framesPassedToHL  ETV
vector 147  VoIPMCoAMulti.R1.eth[0].mac  framesReceivedOK  ETV
vector 149  VoIPMCoAMulti.R1.eth[0].mac  bytesReceivedOK  ETV
vector 153  VoIPMCoAMulti.R1.eth[0].mac  framesPassedToHL  ETV
vector 4  VoIPMCoAMulti.Ra.eth[0].mac  framesReceivedOK  ETV
vector 6  VoIPMCoAMulti.Ra.eth[0].mac  bytesReceivedOK  ETV
vector 10  VoIPMCoAMulti.Ra.eth[0].mac  framesPassedToHL  ETV
vector 99  VoIPMCoAMulti.AP_HA.eth[0]  framesReceivedOK  ETV
vector 101  VoIPMCoAMulti.AP_HA.eth[0]  bytesReceivedOK  ETV
vector 105  VoIPMCoAMulti.AP_HA.eth[0]  framesPassedToHL  ETV
vector 18  VoIPMCoAMulti.Ra.eth[1].mac  framesReceivedOK  ETV
vector 20  VoIPMCoAMulti.Ra.eth[1].mac  bytesReceivedOK  ETV
vector 24  VoIPMCoAMulti.Ra.eth[1].mac  framesPassedToHL  ETV
vector 193  VoIPMCoAMulti.AP_1.eth[0]  framesReceivedOK  ETV
vector 195  VoIPMCoAMulti.AP_1.eth[0]  bytesReceivedOK  ETV
vector 199  VoIPMCoAMulti.AP_1.eth[0]  framesPassedToHL  ETV
vector 211  VoIPMCoAMulti.AP_2.eth[0]  framesReceivedOK  ETV
vector 213  VoIPMCoAMulti.AP_2.eth[0]  bytesReceivedOK  ETV
vector 217  VoIPMCoAMulti.AP_2.eth[0]  framesPassedToHL  ETV
vector 92  VoIPMCoAMulti.AP_HA.relayUnit  "buffer level"  ETV
vector 186  VoIPMCoAMulti.AP_1.relayUnit  "buffer level"  ETV
vector 204  VoIPMCoAMulti.AP_2.relayUnit  "buffer level"  ETV
vector 93  VoIPMCoAMulti.AP_HA.wlan.mgmt  "queue length"  ETV
vector 187  VoIPMCoAMulti.AP_1.wlan.mgmt  "queue length"  ETV
vector 205  VoIPMCoAMulti.AP_2.wlan.mgmt  "queue length"  ETV
vector 226  VoIPMCoAMulti.Rb.eth[0].mac  framesReceivedOK  ETV
vector 228  VoIPMCoAMulti.Rb.eth[0].mac  bytesReceivedOK  ETV
vector 232  VoIPMCoAMulti.Rb.eth[0].mac  framesPassedToHL  ETV
vector 32  VoIPMCoAMulti.Ra.eth[2].mac  framesReceivedOK  ETV
vector 34  VoIPMCoAMulti.Ra.eth[2].mac  bytesReceivedOK  ETV
vector 38  VoIPMCoAMulti.Ra.eth[2].mac  framesPassedToHL  ETV
vector 240  VoIPMCoAMulti.Rb.eth[1].mac  framesReceivedOK  ETV
vector 242  VoIPMCoAMulti.Rb.eth[1].mac  bytesReceivedOK  ETV
vector 246  VoIPMCoAMulti.Rb.eth[1].mac  framesPassedToHL  ETV
vector 52  VoIPMCoAMulti.CN[0].eth[0].mac  framesReceivedOK  ETV
vector 54  VoIPMCoAMulti.CN[0].eth[0].mac  bytesReceivedOK  ETV
vector 58  VoIPMCoAMulti.CN[0].eth[0].mac  framesPassedToHL  ETV
vector 98  VoIPMCoAMulti.AP_HA.eth[0]  framesSent  ETV
vector 100  VoIPMCoAMulti.AP_HA.eth[0]  bytesSent  ETV
vector 81  VoIPMCoAMulti.HA.eth[1].mac  framesReceivedOK  ETV
vector 83  VoIPMCoAMulti.HA.eth[1].mac  bytesReceivedOK  ETV
vector 87  VoIPMCoAMulti.HA.eth[1].mac  framesPassedToHL  ETV
vector 110  VoIPMCoAMulti.MN[0].udpApp[0]  "MCOA VIDEO Packet Rcv"  ETV
vector 112  VoIPMCoAMulti.MN[0].udpApp[0]  "MCOA VIDEO Delay"  ETV
vector 111  VoIPMCoAMulti.MN[0].udpApp[0]  "MCOA VIDEO Packet Lost"  ETV
vector 122  VoIPMCoAMulti.MN[0].wlan[0].radio  "MAC loss rate"  ETV
vector 142  VoIPMCoAMulti.MN[1].wlan[0].radio  "MAC loss rate"  ETV
vector 49  VoIPMCoAMulti.CN[0].eth[0].queue  "queue length"  ETV
vector 249  VoIPMCoAMulti.Rb.eth[1].mac  collisions  ETV
vector 250  VoIPMCoAMulti.Rb.eth[1].mac  backoffs  ETV
vector 61  VoIPMCoAMulti.CN[0].eth[0].mac  collisions  ETV
vector 46  VoIPMCoAMulti.CN[0].pingApp  "PING: Ping Request"  ETV
vector 47  VoIPMCoAMulti.CN[0].pingApp  "PING: Ping Reply"  ETV
vector 44  VoIPMCoAMulti.CN[0].pingApp  pingRTT  ETV
vector 97  VoIPMCoAMulti.AP_HA.wlan.radio  "MAC loss rate"  ETV
vector 279  VoIPMCoAMulti.MN[0].networkLayer.xMobileIPv6  "BU to HA"  ETV
vector 192  VoIPMCoAMulti.AP_1.eth[0]  framesSent  ETV
vector 194  VoIPMCoAMulti.AP_1.eth[0]  bytesSent  ETV
vector 161  VoIPMCoAMulti.R1.eth[1].mac  framesReceivedOK  ETV
vector 163  VoIPMCoAMulti.R1.eth[1].mac  bytesReceivedOK  ETV
vector 167  VoIPMCoAMulti.R1.eth[1].mac  framesPassedToHL  ETV
vector 127  VoIPMCoAMulti.MN[0].wlan[1].radio  "MAC loss rate"  ETV
vector 45  VoIPMCoAMulti.CN[0].pingApp  pingDrop  ETV
vector 223  VoIPMCoAMulti.Rb.eth[0].queue  "queue length"  ETV
vector 64  VoIPMCoAMulti.HA.eth[0].queue  "queue length"  ETV
vector 237  VoIPMCoAMulti.Rb.eth[1].queue  "queue length"  ETV
vector 210  VoIPMCoAMulti.AP_2.eth[0]  framesSent  ETV
vector 212  VoIPMCoAMulti.AP_2.eth[0]  bytesSent  ETV
vector 175  VoIPMCoAMulti.R1.eth[2].mac  framesReceivedOK  ETV
vector 177  VoIPMCoAMulti.R1.eth[2].mac  bytesReceivedOK  ETV
vector 181  VoIPMCoAMulti.R1.eth[2].mac  framesPassedToHL  ETV
vector 269  VoIPMCoAMulti.HA.networkLayer.xMobileIPv6  "BA to MN"  ETV
vector 132  VoIPMCoAMulti.MN[0].wlan[2].radio  "MAC loss rate"  ETV
vector 283  VoIPMCoAMulti.MN[0].networkLayer.xMobileIPv6  "BA from HA"  ETV
vector 285  VoIPMCoAMulti.MN[0].networkLayer.xMobileIPv6  "HoTI to CN"  ETV
vector 286  VoIPMCoAMulti.MN[0].networkLayer.xMobileIPv6  "CoTI to CN"  ETV
vector 128  VoIPMCoAMulti.MN[0].wlan[2].mgmt  "queue length"  ETV
vector 261  VoIPMCoAMulti.CN[0].networkLayer.xMobileIPv6  "HoT to MN"  ETV
vector 262  VoIPMCoAMulti.CN[0].networkLayer.xMobileIPv6  "CoT to MN"  ETV
vector 290  VoIPMCoAMulti.MN[0].networkLayer.xMobileIPv6  "CoT from CN"  ETV
vector 289  VoIPMCoAMulti.MN[0].networkLayer.xMobileIPv6  "HoT from CN"  ETV
vector 280  VoIPMCoAMulti.MN[0].networkLayer.xMobileIPv6  "BU to CN"  ETV
vector 256  VoIPMCoAMulti.CN[0].networkLayer.xMobileIPv6  "BA to MN"  ETV
vector 284  VoIPMCoAMulti.MN[0].networkLayer.xMobileIPv6  "BA from CN"  ETV
vector 191  VoIPMCoAMulti.AP_1.wlan.radio  "MAC loss rate"  ETV
0	10807 8 0 0 0 0 1 1 1 1 1
3	10815 9414 547 377818 1.0000672 194.0403216 397 1 397 79003 20935795
4	20229 6642 811 377872 1.0100672 194.0604288 278 1 278 38781 7200339
5	26871 10389 547 377818 1.0000672 194.0403216 397 64 111402 25998988 2179604616392
6	37260 7243 811 377872 1.0100672 194.0604288 278 64 61208 9934822 469196273268
10	44503 6920 811 377872 1.0100672 194.0604288 278 1 278 38781 7200339
17	51423 728 548 299322 1.0000672 154.152245886382 25 1 25 325 5525
18	52151 728 813 299397 1.0100672 154.172313086382 25 1 25 325 5525
19	52879 777 548 299322 1.0000672 154.152245886382 25 64 2980 37026 77119108
20	53656 776 813 299397 1.0100672 154.172313086382 25 64 2552 32888 58605504
24	54432 728 813 299397 1.0100672 154.172313086382 25 1 25 325 5525
31	55160 6950 549 377879 1.0000672 194.060536 284 1 284 40470 7675810
32	62110 10005 1458 377811 1.0200672 194.0402144 403 1 403 81406 21898214
33	72115 7563 549 377879 1.0000672 194.060536 284 64 61436 10268732 487897074952
34	79678 10998 1458 377811 1.0200672 194.0402144 403 64 112058 26667614 2254147747532
38	90676 10005 1458 377811 1.0200672 194.0402144 403 1 403 81406 21898214
43	100681 3344 2 188629 0 99.5 200 1 200 20100 2686700
44	104025 5508 18730 377983 10.2010464 194.1006432 176 0.1006432 0.2010464 17.8142112 1.8131258322022
45	109533 116 63596 365940 35.1006432 188.1006432 5 5 9 35 255
46	109649 3084 18184 377717 10 194 185 0 184 17020 2093460
47	112733 4348 18730 377983 10.2010464 194.1006432 176 0 184 16453 2027639
48	117081 9 0 0 0 0 1 1 1 1 1
49	117090 3560 15298 363372 8.5 187.0000672 192 0 2 98 100
51	120650 10196 550 379925 1.0000672 195.1007376 414 1 414 85905 23738415
52	130846 7176 1460 379916 1.0200672 195.1006704 287 1 287 41328 7921200
53	138022 11220 550 379925 1.0000672 195.1007376 414 64 114168 27749646 2389904999140
54	149242 7795 1460 379916 1.0200672 195.1006704 287 64 61628 10334994 492600159228
58	157037 7176 1460 379916 1.0200672 195.1006704 287 1 287 41328 7921200
61	164213 159 15385 363448 8.5400768 187.0400768 7 1 7 28 140
63	164372 37 0 63263 0 35 3 1 2 4 6
64	164409 3081 80289 369794 45.0512736 190.0503888 136 0 5 312 1028
66	167490 6920 551 377854 1.0000672 194.0504288 278 1 278 38781 7200339
67	174410 9811 809 377845 1.0100672 194.0503216 397 1 397 79003 20935795
68	184221 7521 551 377854 1.0000672 194.0504288 278 64 61208 9934822 469196273268
69	191742 10786 809 377845 1.0100672 194.0503216 397 64 111402 25998988 2179604616392
73	202528 9811 809 377845 1.0100672 194.0503216 397 1 397 79003 20935795
78	212339 1320 80 154590 0.099036790067 83.073541230926 58 0 21 461 6229
80	213659 123922 552 389296 1.0000672 199.969107741327 4057 1 4057 8231653 22266621365
81	337581 104 5615 154561 3.632146531506 83.071986030926 4 1 4 10 30
82	337685 131856 552 389296 1.0000672 199.969107741327 4057 64 301456 656551192 1.3624562760061e+14
83	469541 110 5615 154561 3.632146531506 83.071986030926 4 40 160 400 48000
87	469651 104 5615 154561 3.632146531506 83.071986030926 4 1 4 10 30
92	469755 230118 819 389307 1.0100672 199.979109741327 8122 0 466 301616 38782112
93	699873 1123 873 154711 1.0102036 83.08509325098 48 0 17 358 4160
95	700996 2404382 0 389327 0 199.979535559508 86452 0 7 224224 846224
96	3105378 703726 0 389315 0 199.979405559508 25310 0 2 25036 49800
97	3809104 54 36670 163848 19.062515484148 87.56240906189 2 0 0 0 0
98	3809158 104 5597 154515 3.622146531506 83.061986030926 4 1 4 10 30
99	3809262 123937 812 389305 1.0100672 199.979107741327 4057 1 4057 8231653 22266621365
100	3933199 114 5597 154515 3.622146531506 83.061986030926 4 40 160 400 48000
101	3933313 135928 812 389305 1.0100672 199.979107741327 4057 64 301456 656551192 1.3624562760061e+14
105	4069241 127994 812 389305 1.0100672 199.979107741327 4057 1 4057 8231653 22266621365
110	4197235 2717 5669 188791 3.643130124532 99.562150352099 92 8 200 8824 1339946
111	4199952 112 5669 154630 3.643130124532 83.082970173662 4 2 91 112 8470
112	4200064 3963 5669 188791 3.643130124532 99.562150352099 92 0.062149761708 2.082970173662 10.91614485104 8.7281356237293
117	4204027 10 0 0 0 0 1 1 1 1 1
120	4204037 619238 0 389322 0 199.979406184672 21454 0 7 20280 80984
121	4823275 333764 0 389321 0 199.979406184672 11616 0 2 7038 9502
122	5157039 1290 6728 386919 4.273813950052 198.714274383615 45 0 0 0 0
125	5158329 753024 0 389336 0 199.985024493436 25666 0 7 13474 51602
126	5911353 451830 0 389335 0 199.985024493436 15352 0 2 8422 9918
127	6363183 2039 39896 388563 20.885024708559 199.558131300515 69 0 0 0 0
128	6365222 118 225502 225555 118.03106743056 118.032971496086 4 0 2 4 6
130	6365340 555408 0 389164 0 199.893566130341 18934 0 7 20714 78094
131	6920748 286402 0 389162 0 199.892936130341 9688 0 2 5972 8232
132	7207150 1106 225441 344800 118.010808303288 177.242665032882 37 0 0 0 0
137	7208256 10 0 0 0 0 1 1 1 1 1
140	7208266 1119438 0 389317 0 199.979405991004 38506 0 7 356 1400
141	8327704 730208 0 389316 0 199.979405991004 25088 0 2 12560 12596
142	9057912 3639 9305 388540 5.454787476506 199.556697055698 125 0 0.02 0.02 0.0004
143	9061551 70 0 80146 0 45 5 1 2 7 11
146	9061621 753 553 299370 1.0000672 154.162313086382 25 1 25 325 5525
147	9062374 753 810 299361 1.0100672 154.162245886382 25 1 25 325 5525
148	9063127 801 553 299370 1.0000672 154.162313086382 25 64 2552 32888 58605504
149	9063928 802 810 299361 1.0100672 154.162245886382 25 64 2980 37026 77119108
153	9064730 753 810 299361 1.0100672 154.162245886382 25 1 25 325 5525
158	9065483 868 83 772 0.112910363226 1.0012768 38 0 19 361 4579
160	9066351 121322 554 389254 1.0000672 199.951326039649 3818 1 3818 7290471 18559109009
161	9187673 291 39111 258005 20.300062997219 133.183583840923 10 1 10 55 385
162	9187964 128333 554 389254 1.0000672 199.951326039649 3818 64 245734 468818008 76853622187856
163	9316297 310 39111 258005 20.300062997219 133.183583840923 10 108 918 4500 2765760
167	9316607 291 39111 258005 20.300062997219 133.183583840923 10 1 10 55 385
172	9316898 868 69 773 0.084193305931 1.0012768 38 0 19 361 4579
174	9317766 121357 555 389303 1.0000672 199.976623881769 3820 1 3820 7298110 18588286170
175	9439123 516 225100 289094 117.919112699599 149.043036798026 17 1 17 153 1785
176	9439639 128370 555 389303 1.0000672 199.976623881769 3820 64 244580 467242378 76200437893668
177	9568009 546 225100 289094 117.919112699599 149.043036798026 17 130 1302 11792 10427544
181	9568555 516 225100 289094 117.919112699599 149.043036798026 17 1 17 153 1785
186	9569071 226407 821 389274 1.0100672 199.961328039649 7656 0 166 246652 16025672
187	9795478 846 874 1473 1.0102036 1.020213927258 36 0 16 288 3114
189	9796324 2392590 0 389339 0 199.985133900997 82178 0 7 211858 800774
190	12188914 691536 0 389334 0 199.985023900997 23754 0 2 23634 47150
191	12880450 30 297628 297628 153.386563404381 153.386563404381 1 0 0 0 0
192	12880480 291 39089 257943 20.290062997219 133.173583840923 10 1 10 55 385
193	12880771 121335 814 389272 1.0100672 199.961326039649 3818 1 3818 7290471 18559109009
194	13002106 310 39089 257943 20.290062997219 133.173583840923 10 108 918 4500 2765760
195	13002416 128346 814 389272 1.0100672 199.961326039649 3818 64 245734 468818008 76853622187856
199	13130762 121335 814 389272 1.0100672 199.961326039649 3818 1 3818 7290471 18559109009
204	13252097 226884 822 389343 1.0100672 199.986625881769 7674 0 130 245882 15769540
205	13478981 895 875 1515 1.0102036 1.021609745439 38 0 16 279 2847
207	13479876 2366576 0 389351 0 199.98711169995 81832 0 7 210698 796762
208	15846452 681518 0 389349 0 199.98692169995 23546 0 2 23492 46932
210	16527970 516 225081 289038 117.909112699599 149.033036798026 17 1 17 153 1785
211	16528486 121368 815 389341 1.0100672 199.986623881769 3820 1 3820 7298110 18588286170
212	16649854 546 225081 289038 117.909112699599 149.033036798026 17 130 1302 11792 10427544
213	16650400 128381 815 389341 1.0100672 199.986623881769 3820 64 244580 467242378 76200437893668
217	16778781 121368 815 389341 1.0100672 199.986623881769 3820 1 3820 7298110 18588286170
222	16900149 10 0 0 0 0 1 1 1 1 1
223	16900159 243 71786 353840 39.0201072 182.0201744 10 0 1 5 5
225	16900402 10407 556 377771 1.0000672 194.0202144 403 1 403 81406 21898214
226	16910809 7235 1457 377895 1.0200672 194.080536 284 1 284 40470 7675810
227	16918044 11400 556 377771 1.0000672 194.0202144 403 64 112058 26667614 2254147747532
228	16929444 7848 1457 377895 1.0200672 194.080536 284 64 61436 10268732 487897074952
232	16937292 7235 1457 377895 1.0200672 194.080536 284 1 284 40470 7675810
237	16944527 144 92030 309051 51.0806032 159.0806432 6 0 1 3 3
239	16944671 7462 557 379874 1.0000672 195.0806704 287 1 287 41328 7921200
240	16952133 10432 1459 379977 1.0200672 195.1207376 407 1 407 83028 22555940
241	16962565 8081 557 379874 1.0000672 195.0806704 287 64 61628 10334994 492600159228
242	16970646 11432 1459 379977 1.0200672 195.1207376 407 64 112314 26805674 2270481749212
246	16982078 10432 1459 379977 1.0200672 195.1207376 407 1 407 83028 22555940
249	16992510 166 15356 363414 8.5200768 187.0200768 7 1 7 28 140
250	16992676 155 15357 363415 8.52008 187.02008 7 1 7 28 140
251	16992831 75 183 183 0.287146546295 0.287146546295 3 1 1 3 3
252	16992906 51 242 4402 0.411262702755 3.035009368984 2 1 1 2 2
256	16992957 149 226612 258107 118.235044970351 133.233987040923 5 2 2 10 20
261	16993106 358 225987 289283 118.092228474214 149.093315198026 12 1 1 12 12
262	16993464 60 225998 226038 118.093071506977 118.096587936138 2 1 1 2 2
265	16993524 48 162 162 0.26102617532 0.26102617532 2 1 1 2 2
269	16993572 30 225256 225256 117.959515899599 117.959515899599 1 1 1 1 1
278	16993602 158 290 222592 0.491447337158 116.713361149679 6 1 1 6 6
279	16993760 317 39070 348628 20.289612509166 179.289612509166 11 1 1 11 11
280	16994077 297 226390 257977 118.173280267737 133.174659991402 10 1 1 10 10
283	16994374 29 225491 225491 118.03106743056 118.03106743056 1 1 1 1 1
284	16994403 148 226792 258292 118.295867526975 133.294809885305 5 1 1 5 5
285	16994551 406 225492 351903 118.03106743056 181.03106743056 14 1 1 14 14
286	16994957 58 225493 225495 118.03106743056 118.03106743056 2 1 1 2 2
289	16995015 297 226389 257976 118.173280267737 133.174659991402 10 1 1 10 10
290	16995312 60 226288 226332 118.153713965484 118.157230394645 2 1 1 2 2
291	16995372 51 196 6813 0.289443216007 4.316324289005 2 1 1 2 2
304	16995423 75 110 110 0.156143244146 0.156143244146 3 1 1 3 3
305	16995498 48 26 26 0.035482327127 0.035482327127 2 1 1 2 2
