file 15586009 1425650014                                        
version 2
run MCoA_ALL-0-20150302-11:03:25-3045
attr configname MCoA_ALL
attr datetime 20150302-11:03:25
attr experiment MCoA_ALL
attr inifile VoIPMCoACN.ini
attr iterationvars ""
attr iterationvars2 $repetition=0
attr measurement ""
attr network VoIPMCoAMulti
attr processid 3045
attr repetition 0
attr replication #0
attr resultdir results
attr runnumber 0
attr seedset 0
vector 0  VoIPMCoAMulti.Ra.networkLayer.ipv6  IPv6Active_Event  ETV
0	10304 8 0 0 0 0 1 1 1 1 1
vector 48  VoIPMCoAMulti.CN[0].networkLayer.ipv6  IPv6Active_Event  ETV
48	116106 9 0 0 0 0 1 1 1 1 1
vector 63  VoIPMCoAMulti.HA.networkLayer.ipv6  IPv6Active_Event  ETV
63	165197 37 0 59339 0 35 3 1 2 4 6
vector 117  VoIPMCoAMulti.MN[0].networkLayer.ipv6  IPv6Active_Event  ETV
117	4059391 10 0 0 0 0 1 1 1 1 1
vector 133  VoIPMCoAMulti.R1.networkLayer.ipv6  IPv6Active_Event  ETV
133	7378552 70 0 73489 0 45 5 1 2 7 11
vector 212  VoIPMCoAMulti.Rb.networkLayer.ipv6  IPv6Active_Event  ETV
212	15492182 10 0 0 0 0 1 1 1 1 1
vector 96  VoIPMCoAMulti.AP_HA.wlan.mac  RadioState  ETV
attr enum "IDLE=0, RECV=1, SLEEP=3, TRANSMIT=2"
attr enumname RadioState
96	2997893 672018 0 363869 0 199.996943316612 23970 0 2 23872 47648
vector 95  VoIPMCoAMulti.AP_HA.wlan.mac  State  ETV
attr enum "BACKOFF=3, DEFER=1, IDLE=0, RECEIVE=8, WAITACK=4, WAITBROADCAST=5, WAITCTS=6, WAITDIFS=2, WAITSIFS=7"
attr enumname Ieee80211Mac
95	666553 2331340 0 363876 0 199.997133316612 83108 0 7 214294 809894
vector 121  VoIPMCoAMulti.MN[0].wlan[0].mac  RadioState  ETV
attr enum "IDLE=0, RECV=1, SLEEP=3, TRANSMIT=2"
attr enumname RadioState
121	4620159 291322 0 363870 0 199.996943713068 10092 0 2 6182 8458
vector 120  VoIPMCoAMulti.MN[0].wlan[0].mac  State  ETV
attr enum "BACKOFF=3, DEFER=1, IDLE=0, RECEIVE=8, WAITACK=4, WAITBROADCAST=5, WAITCTS=6, WAITDIFS=2, WAITSIFS=7"
attr enumname Ieee80211Mac
120	4059401 560758 0 363871 0 199.996943713068 19362 0 7 19986 76826
vector 126  VoIPMCoAMulti.MN[0].wlan[1].mac  RadioState  ETV
attr enum "IDLE=0, RECV=1, SLEEP=3, TRANSMIT=2"
attr enumname RadioState
126	5676722 458212 0 363842 0 199.986365212049 15844 0 2 8882 10806
vector 125  VoIPMCoAMulti.MN[0].wlan[1].mac  State  ETV
attr enum "BACKOFF=3, DEFER=1, IDLE=0, RECEIVE=8, WAITACK=4, WAITBROADCAST=5, WAITCTS=6, WAITDIFS=2, WAITSIFS=7"
attr enumname Ieee80211Mac
125	4912602 764120 0 363851 0 199.986975212049 26404 0 7 14930 61970
vector 131  VoIPMCoAMulti.MN[0].wlan[2].mac  RadioState  ETV
attr enum "IDLE=0, RECV=1, SLEEP=3, TRANSMIT=2"
attr enumname RadioState
131	6911032 465472 0 363521 0 199.805058967841 15952 0 2 8866 10650
vector 130  VoIPMCoAMulti.MN[0].wlan[2].mac  State  ETV
attr enum "BACKOFF=3, DEFER=1, IDLE=0, RECEIVE=8, WAITACK=4, WAITBROADCAST=5, WAITCTS=6, WAITDIFS=2, WAITSIFS=7"
attr enumname Ieee80211Mac
130	6136932 774100 0 363523 0 199.805228967841 26566 0 7 13904 57304
vector 180  VoIPMCoAMulti.AP_1.wlan.mac  RadioState  ETV
attr enum "IDLE=0, RECV=1, SLEEP=3, TRANSMIT=2"
attr enumname RadioState
180	10650565 736706 0 363834 0 199.986093289256 25406 0 2 25072 49812
vector 179  VoIPMCoAMulti.AP_1.wlan.mac  State  ETV
attr enum "BACKOFF=3, DEFER=1, IDLE=0, RECEIVE=8, WAITACK=4, WAITBROADCAST=5, WAITCTS=6, WAITDIFS=2, WAITSIFS=7"
attr enumname Ieee80211Mac
179	8152045 2498520 0 363838 0 199.986143289256 86092 0 7 224258 845414
vector 198  VoIPMCoAMulti.AP_2.wlan.mac  RadioState  ETV
attr enum "IDLE=0, RECV=1, SLEEP=3, TRANSMIT=2"
attr enumname RadioState
198	14411190 700862 0 363802 0 199.955783867678 24282 0 2 24032 47816
vector 197  VoIPMCoAMulti.AP_2.wlan.mac  State  ETV
attr enum "BACKOFF=3, DEFER=1, IDLE=0, RECEIVE=8, WAITACK=4, WAITBROADCAST=5, WAITCTS=6, WAITDIFS=2, WAITSIFS=7"
attr enumname Ieee80211Mac
197	12002476 2408714 0 363804 0 199.955853867678 83476 0 7 215798 814714
vector 43  VoIPMCoAMulti.CN[0].udpApp[0]  "MCOA VIDEO Packet Sent"  ETV
43	99718 3339 2 186017 0 99.5 200 1 200 20100 2686700
vector 162  VoIPMCoAMulti.R1.eth[2].queue  "queue length"  ETV
162	7661109 869 68 151793 0.099534466992 82.5516224 38 0 18 325 3895
vector 242  VoIPMCoAMulti.CN[0].networkLayer.neighbourDiscovery  "Starting DAD"  ETV
242	15584959 50 69 2605 0.108087359648 1.793140663937 2 1 1 2 2
vector 148  VoIPMCoAMulti.R1.eth[1].queue  "queue length"  ETV
148	7401794 919 76 110557 0.121955667156 62.5515552 40 0 19 362 4580
vector 78  VoIPMCoAMulti.HA.eth[1].queue  "queue length"  ETV
78	192580 1076 79 6571 0.124525960739 4.133701733328 48 0 20 416 5384
vector 241  VoIPMCoAMulti.Ra.networkLayer.neighbourDiscovery  "Starting DAD"  ETV
241	15584884 75 117 117 0.194451562967 0.194451562967 3 1 1 3 3
vector 282  VoIPMCoAMulti.Rb.networkLayer.neighbourDiscovery  "Starting DAD"  ETV
282	15585959 50 136 136 0.240273225749 0.240273225749 2 1 1 2 2
vector 255  VoIPMCoAMulti.HA.networkLayer.neighbourDiscovery  "Starting DAD"  ETV
255	15585175 50 179 179 0.287146546295 0.287146546295 2 1 1 2 2
vector 281  VoIPMCoAMulti.R1.networkLayer.neighbourDiscovery  "Starting DAD"  ETV
281	15585884 75 186 186 0.293585502868 0.293585502868 3 1 1 3 3
vector 268  VoIPMCoAMulti.MN[0].networkLayer.neighbourDiscovery  "Starting DAD"  ETV
268	15585280 157 244 73536 0.411262702755 45.019189358983 6 1 1 6 6
vector 3  VoIPMCoAMulti.Ra.eth[0].mac  framesSent  ETV
3	10611 5311 538 353997 1.0000672 194.0403216 226 1 226 25651 3873301
vector 5  VoIPMCoAMulti.Ra.eth[0].mac  bytesSent  ETV
5	20515 5839 538 353997 1.0000672 194.0403216 226 64 34594 4819000 119597486232
vector 17  VoIPMCoAMulti.Ra.eth[1].mac  framesSent  ETV
17	36312 6946 539 186132 1.0000672 99.5415552 285 1 285 40755 7757035
vector 19  VoIPMCoAMulti.Ra.eth[1].mac  bytesSent  ETV
19	43618 7651 539 186132 1.0000672 99.5415552 285 64 127630 17785638 1509334361228
vector 31  VoIPMCoAMulti.Ra.eth[2].mac  framesSent  ETV
31	52015 4668 540 354063 1.0000672 194.060536 195 1 195 19110 2490670
vector 33  VoIPMCoAMulti.Ra.eth[2].mac  bytesSent  ETV
33	68908 5064 540 354063 1.0000672 194.060536 195 64 21554 2102062 30315175044
vector 51  VoIPMCoAMulti.CN[0].eth[0].mac  framesSent  ETV
51	123672 12439 541 355806 1.0000672 195.1007376 509 1 509 129795 44087035
vector 53  VoIPMCoAMulti.CN[0].eth[0].mac  bytesSent  ETV
53	141023 13766 541 355806 1.0000672 195.1007376 509 64 163050 45873148 5505208658536
vector 66  VoIPMCoAMulti.HA.eth[0].mac  framesSent  ETV
66	165468 4787 542 354026 1.0000672 194.0504288 194 1 194 18915 2452645
vector 68  VoIPMCoAMulti.HA.eth[0].mac  bytesSent  ETV
68	175792 5186 542 354026 1.0000672 194.0504288 194 64 21924 2167852 31893071312
vector 80  VoIPMCoAMulti.HA.eth[1].mac  framesSent  ETV
80	193656 120392 543 363850 1.0000672 199.986645498431 3922 1 3922 7693003 20117202845
vector 82  VoIPMCoAMulti.HA.eth[1].mac  bytesSent  ETV
82	314098 127815 543 363850 1.0000672 199.986645498431 3922 64 261460 531299560 93063925364264
vector 136  VoIPMCoAMulti.R1.eth[0].mac  framesSent  ETV
136	7378622 374 544 159159 1.0000672 86.0510192 14 1 14 105 1015
vector 138  VoIPMCoAMulti.R1.eth[0].mac  bytesSent  ETV
138	7386227 400 544 159159 1.0000672 86.0510192 14 64 1316 9844 9337824
vector 150  VoIPMCoAMulti.R1.eth[1].mac  framesSent  ETV
150	7402713 124977 545 363858 1.0000672 199.990924800369 3960 1 3960 7842780 20707553460
vector 152  VoIPMCoAMulti.R1.eth[1].mac  bytesSent  ETV
152	7527914 132731 545 363858 1.0000672 199.990924800369 3960 64 313158 671786670 1.4830520916107e+14
vector 164  VoIPMCoAMulti.R1.eth[2].mac  framesSent  ETV
164	7661978 124008 546 363772 1.0000672 199.945486049497 3922 1 3922 7693003 20117202845
vector 166  VoIPMCoAMulti.R1.eth[2].mac  bytesSent  ETV
166	7786234 131523 546 363772 1.0000672 199.945486049497 3922 64 293042 601646844 1.2303376413059e+14
vector 215  VoIPMCoAMulti.Rb.eth[0].mac  framesSent  ETV
215	15492435 12721 547 353969 1.0000672 194.0202144 497 1 497 123753 41044745
vector 217  VoIPMCoAMulti.Rb.eth[0].mac  bytesSent  ETV
217	15510020 14017 547 353969 1.0000672 194.0202144 497 64 160474 44217766 5217746017484
vector 229  VoIPMCoAMulti.Rb.eth[1].mac  framesSent  ETV
229	15534355 5109 548 355754 1.0000672 195.0806704 198 1 198 19701 2607099
vector 231  VoIPMCoAMulti.Rb.eth[1].mac  bytesSent  ETV
231	15552210 5510 548 355754 1.0000672 195.0806704 198 64 21746 2143034 31199313212
vector 67  VoIPMCoAMulti.HA.eth[0].mac  framesReceivedOK  ETV
67	170255 5537 786 354017 1.0100672 194.0503216 226 1 226 25651 3873301
vector 69  VoIPMCoAMulti.HA.eth[0].mac  bytesReceivedOK  ETV
69	180978 6065 786 354017 1.0100672 194.0503216 226 64 34594 4819000 119597486232
vector 73  VoIPMCoAMulti.HA.eth[0].mac  framesPassedToHL  ETV
73	187043 5537 786 354017 1.0100672 194.0503216 226 1 226 25651 3873301
vector 137  VoIPMCoAMulti.R1.eth[0].mac  framesReceivedOK  ETV
137	7378996 7231 787 186142 1.0100672 99.5515552 285 1 285 40755 7757035
vector 139  VoIPMCoAMulti.R1.eth[0].mac  bytesReceivedOK  ETV
139	7386627 7936 787 186142 1.0100672 99.5515552 285 64 127630 17785638 1509334361228
vector 143  VoIPMCoAMulti.R1.eth[0].mac  framesPassedToHL  ETV
143	7394563 7231 787 186142 1.0100672 99.5515552 285 1 285 40755 7757035
vector 4  VoIPMCoAMulti.Ra.eth[0].mac  framesReceivedOK  ETV
4	15922 4593 788 354056 1.0100672 194.0604288 194 1 194 18915 2452645
vector 6  VoIPMCoAMulti.Ra.eth[0].mac  bytesReceivedOK  ETV
6	26354 4992 788 354056 1.0100672 194.0604288 194 64 21924 2167852 31893071312
vector 10  VoIPMCoAMulti.Ra.eth[0].mac  framesPassedToHL  ETV
10	31346 4787 788 354056 1.0100672 194.0604288 194 1 194 18915 2452645
vector 99  VoIPMCoAMulti.AP_HA.eth[0]  framesReceivedOK  ETV
99	3669961 120401 789 363860 1.0100672 199.996645498431 3922 1 3922 7693003 20117202845
vector 101  VoIPMCoAMulti.AP_HA.eth[0]  bytesReceivedOK  ETV
101	3790416 131746 789 363860 1.0100672 199.996645498431 3922 64 261460 531299560 93063925364264
vector 105  VoIPMCoAMulti.AP_HA.eth[0]  framesPassedToHL  ETV
105	3922162 124323 789 363860 1.0100672 199.996645498431 3922 1 3922 7693003 20117202845
vector 18  VoIPMCoAMulti.Ra.eth[1].mac  framesReceivedOK  ETV
18	43258 360 790 159232 1.0100672 86.0610192 14 1 14 105 1015
vector 20  VoIPMCoAMulti.Ra.eth[1].mac  bytesReceivedOK  ETV
20	51269 386 790 159232 1.0100672 86.0610192 14 64 1316 9844 9337824
vector 24  VoIPMCoAMulti.Ra.eth[1].mac  framesPassedToHL  ETV
24	51655 360 790 159232 1.0100672 86.0610192 14 1 14 105 1015
vector 183  VoIPMCoAMulti.AP_1.eth[0]  framesReceivedOK  ETV
183	11387581 124953 791 363818 1.0100672 199.964181823438 3959 1 3959 7838820 20691871860
vector 185  VoIPMCoAMulti.AP_1.eth[0]  bytesReceivedOK  ETV
185	11512774 132705 791 363818 1.0100672 199.964181823438 3959 64 313094 671473512 1.482071412281e+14
vector 189  VoIPMCoAMulti.AP_1.eth[0]  framesPassedToHL  ETV
189	11645479 124953 791 363818 1.0100672 199.964181823438 3959 1 3959 7838820 20691871860
vector 201  VoIPMCoAMulti.AP_2.eth[0]  framesReceivedOK  ETV
201	15112358 124015 792 363794 1.0100672 199.955486049497 3922 1 3922 7693003 20117202845
vector 203  VoIPMCoAMulti.AP_2.eth[0]  bytesReceivedOK  ETV
203	15236637 131530 792 363794 1.0100672 199.955486049497 3922 64 293042 601646844 1.2303376413059e+14
vector 207  VoIPMCoAMulti.AP_2.eth[0]  framesPassedToHL  ETV
207	15368167 124015 792 363794 1.0100672 199.955486049497 3922 1 3922 7693003 20117202845
vector 92  VoIPMCoAMulti.AP_HA.relayUnit  "buffer level"  ETV
92	442015 223533 796 363862 1.0100672 199.996647498431 7848 0 466 261540 21607272
vector 176  VoIPMCoAMulti.AP_1.relayUnit  "buffer level"  ETV
176	7918269 232934 798 363820 1.0100672 199.964183823438 7934 0 506 313626 47863268
vector 194  VoIPMCoAMulti.AP_2.relayUnit  "buffer level"  ETV
194	11770432 231247 799 363796 1.0100672 199.955488049497 7862 0 466 293658 38320564
vector 93  VoIPMCoAMulti.AP_HA.wlan.mgmt  "queue length"  ETV
93	665548 1005 849 6668 1.0102036 4.145270460588 44 0 17 324 3614
vector 177  VoIPMCoAMulti.AP_1.wlan.mgmt  "queue length"  ETV
177	8151203 842 850 1391 1.0102036 1.019153927258 36 0 15 270 2678
vector 195  VoIPMCoAMulti.AP_2.wlan.mgmt  "queue length"  ETV
195	12001679 797 851 1431 1.0102036 1.020118109077 34 0 16 261 2749
vector 216  VoIPMCoAMulti.Rb.eth[0].mac  framesReceivedOK  ETV
216	15505156 4864 1419 354103 1.0200672 194.080536 195 1 195 19110 2490670
vector 218  VoIPMCoAMulti.Rb.eth[0].mac  bytesReceivedOK  ETV
218	15524037 5260 1419 354103 1.0200672 194.080536 195 64 21554 2102062 30315175044
vector 222  VoIPMCoAMulti.Rb.eth[0].mac  framesPassedToHL  ETV
222	15529297 4864 1419 354103 1.0200672 194.080536 195 1 195 19110 2490670
vector 32  VoIPMCoAMulti.Ra.eth[2].mac  framesReceivedOK  ETV
32	56683 12225 1420 353990 1.0200672 194.0402144 497 1 497 123753 41044745
vector 34  VoIPMCoAMulti.Ra.eth[2].mac  bytesReceivedOK  ETV
34	73972 13521 1420 353990 1.0200672 194.0402144 497 64 160474 44217766 5217746017484
vector 38  VoIPMCoAMulti.Ra.eth[2].mac  framesPassedToHL  ETV
38	87493 12225 1420 353990 1.0200672 194.0402144 497 1 497 123753 41044745
vector 230  VoIPMCoAMulti.Rb.eth[1].mac  framesReceivedOK  ETV
230	15539464 12746 1421 355827 1.0200672 195.1207376 501 1 501 125751 42042751
vector 232  VoIPMCoAMulti.Rb.eth[1].mac  bytesReceivedOK  ETV
232	15557720 14048 1421 355827 1.0200672 195.1207376 501 64 160730 44391524 5245827593528
vector 236  VoIPMCoAMulti.Rb.eth[1].mac  framesPassedToHL  ETV
236	15571768 12746 1421 355827 1.0200672 195.1207376 501 1 501 125751 42042751
vector 52  VoIPMCoAMulti.CN[0].eth[0].mac  framesReceivedOK  ETV
52	136111 4912 1422 355797 1.0200672 195.1006704 198 1 198 19701 2607099
vector 54  VoIPMCoAMulti.CN[0].eth[0].mac  bytesReceivedOK  ETV
54	154789 5313 1422 355797 1.0200672 195.1006704 198 64 21746 2143034 31199313212
vector 58  VoIPMCoAMulti.CN[0].eth[0].mac  framesPassedToHL  ETV
58	160102 4912 1422 355797 1.0200672 195.1006704 198 1 198 19701 2607099
vector 1  VoIPMCoAMulti.Ra.eth[0].queue  "queue length"  ETV
1	10312 299 4623 334916 3.1010464 183.0402816 14 0 2 9 11
vector 98  VoIPMCoAMulti.AP_HA.eth[0]  framesSent  ETV
98	3669911 50 6524 8122 4.122146533328 4.935115432541 2 1 2 3 5
vector 100  VoIPMCoAMulti.AP_HA.eth[0]  bytesSent  ETV
100	3790362 54 6524 8122 4.122146533328 4.935115432541 2 40 80 120 8000
vector 81  VoIPMCoAMulti.HA.eth[1].mac  framesReceivedOK  ETV
81	314048 50 6542 8155 4.132146533328 4.945115432541 2 1 2 3 5
vector 83  VoIPMCoAMulti.HA.eth[1].mac  bytesReceivedOK  ETV
83	441913 52 6542 8155 4.132146533328 4.945115432541 2 40 80 120 8000
vector 87  VoIPMCoAMulti.HA.eth[1].mac  framesPassedToHL  ETV
87	441965 50 6542 8155 4.132146533328 4.945115432541 2 1 2 3 5
vector 110  VoIPMCoAMulti.MN[0].udpApp[0]  "MCOA VIDEO Packet Rcv"  ETV
110	4046485 5188 6612 186211 4.143130127265 99.56253876549 174 5 200 18608 2567826
vector 112  VoIPMCoAMulti.MN[0].udpApp[0]  "MCOA VIDEO Delay"  ETV
112	4051812 7579 6612 186211 4.143130127265 99.56253876549 174 0.062149893569 2.143130127265 16.270143126306 9.7042542986484
vector 111  VoIPMCoAMulti.MN[0].udpApp[0]  "MCOA VIDEO Packet Lost"  ETV
111	4051673 139 6612 143521 4.143130127265 78.562150482299 5 2 11 31 275
vector 122  VoIPMCoAMulti.MN[0].wlan[0].radio  "MAC loss rate"  ETV
122	4911481 1121 6694 363695 4.145963254525 199.894623044558 39 0 0 0 0
vector 49  VoIPMCoAMulti.CN[0].eth[0].queue  "queue length"  ETV
49	116115 7557 11856 340044 7 186.0000672 402 0 3 309 421
vector 239  VoIPMCoAMulti.Rb.eth[1].mac  collisions  ETV
239	15584514 191 11888 340093 7.0200768 186.0200768 8 1 8 36 204
vector 240  VoIPMCoAMulti.Rb.eth[1].mac  backoffs  ETV
240	15584705 179 11889 340094 7.02008 186.02008 8 1 8 36 204
vector 61  VoIPMCoAMulti.CN[0].eth[0].mac  collisions  ETV
61	165014 183 11924 340134 7.0400768 186.0400768 8 1 8 36 204
vector 46  VoIPMCoAMulti.CN[0].pingApp  "PING: Ping Request"  ETV
46	108679 3082 17253 353926 10 194 185 0 184 17020 2093460
vector 47  VoIPMCoAMulti.CN[0].pingApp  "PING: Ping Reply"  ETV
47	111761 4345 17734 354140 10.2010464 194.1006432 176 0 184 16422 2025014
vector 44  VoIPMCoAMulti.CN[0].pingApp  pingRTT  ETV
44	103057 5505 17734 354140 10.2010464 194.1006432 176 0.1006432 0.2010464 17.8145472 1.8131934870118
vector 127  VoIPMCoAMulti.MN[0].wlan[1].radio  "MAC loss rate"  ETV
127	6134934 1998 26093 329339 14.686094073939 179.886094094086 69 0 0 0 0
vector 269  VoIPMCoAMulti.MN[0].networkLayer.xMobileIPv6  "BU to HA"  ETV
269	15585437 56 27135 77522 15.200357499537 47.005875334204 2 1 1 2 2
vector 182  VoIPMCoAMulti.AP_1.eth[0]  framesSent  ETV
182	11387357 224 27154 159328 15.20080794166 86.063236293324 8 1 8 36 204
vector 184  VoIPMCoAMulti.AP_1.eth[0]  bytesSent  ETV
184	11512534 240 27154 159328 15.20080794166 86.063236293324 8 108 532 2606 1024788
vector 151  VoIPMCoAMulti.R1.eth[1].mac  framesReceivedOK  ETV
151	7527690 224 27198 159346 15.21080794166 86.073236293324 8 1 8 36 204
vector 153  VoIPMCoAMulti.R1.eth[1].mac  bytesReceivedOK  ETV
153	7660645 240 27198 159346 15.21080794166 86.073236293324 8 108 532 2606 1024788
vector 157  VoIPMCoAMulti.R1.eth[1].mac  framesPassedToHL  ETV
157	7660885 224 27198 159346 15.21080794166 86.073236293324 8 1 8 36 204
vector 259  VoIPMCoAMulti.HA.networkLayer.xMobileIPv6  "BA to MN"  ETV
259	15585225 55 27310 77662 15.25117594166 47.036628156568 2 1 1 2 2
vector 273  VoIPMCoAMulti.MN[0].networkLayer.xMobileIPv6  "BA from HA"  ETV
273	15585549 56 27548 77950 15.322658604332 47.088045167532 2 1 1 2 2
vector 275  VoIPMCoAMulti.MN[0].networkLayer.xMobileIPv6  "HoTI to CN"  ETV
275	15585661 56 27549 77951 15.322658604332 47.088045167532 2 1 1 2 2
vector 276  VoIPMCoAMulti.MN[0].networkLayer.xMobileIPv6  "CoTI to CN"  ETV
276	15585717 56 27550 77952 15.322658604332 47.088045167532 2 1 1 2 2
vector 251  VoIPMCoAMulti.CN[0].networkLayer.xMobileIPv6  "HoT to MN"  ETV
251	15585064 56 27788 78173 15.383779625223 47.149426170133 2 1 1 2 2
vector 252  VoIPMCoAMulti.CN[0].networkLayer.xMobileIPv6  "CoT to MN"  ETV
252	15585120 55 27799 78184 15.384886067005 47.15030912079 2 1 1 2 2
vector 280  VoIPMCoAMulti.MN[0].networkLayer.xMobileIPv6  "CoT from CN"  ETV
280	15585829 55 28029 78407 15.44552850303 47.210951540004 2 1 1 2 2
vector 279  VoIPMCoAMulti.MN[0].networkLayer.xMobileIPv6  "HoT from CN"  ETV
279	15585773 56 28125 78467 15.464831952157 47.230478480256 2 1 1 2 2
vector 270  VoIPMCoAMulti.MN[0].networkLayer.xMobileIPv6  "BU to CN"  ETV
270	15585493 56 28126 78468 15.464831952157 47.230478480256 2 1 1 2 2
vector 246  VoIPMCoAMulti.CN[0].networkLayer.xMobileIPv6  "BA to MN"  ETV
246	15585009 55 28323 78707 15.526090788182 47.29164369947 2 2 2 4 8
vector 274  VoIPMCoAMulti.MN[0].networkLayer.xMobileIPv6  "BA from CN"  ETV
274	15585605 56 28577 78826 15.586827472663 47.352466771672 2 1 1 2 2
vector 45  VoIPMCoAMulti.CN[0].pingApp  pingDrop  ETV
45	108562 117 59632 341957 35.1006432 187.1006432 5 5 9 35 255
vector 181  VoIPMCoAMulti.AP_1.wlan.radio  "MAC loss rate"  ETV
181	11387271 86 63223 159265 37.062515566146 86.061898273935 3 0 0 0 0
vector 213  VoIPMCoAMulti.Rb.eth[0].queue  "queue length"  ETV
213	15492192 243 64008 331459 37.5203888 181.0201744 10 0 1 5 5
vector 200  VoIPMCoAMulti.AP_2.eth[0]  framesSent  ETV
200	15112110 248 73556 151924 45.019535960722 82.56365496602 9 1 9 45 285
vector 202  VoIPMCoAMulti.AP_2.eth[0]  bytesSent  ETV
202	15236373 264 73556 151924 45.019535960722 82.56365496602 9 40 616 3042 1385548
vector 165  VoIPMCoAMulti.R1.eth[2].mac  framesReceivedOK  ETV
165	7785986 248 73630 151980 45.029535960722 82.57365496602 9 1 9 45 285
vector 167  VoIPMCoAMulti.R1.eth[2].mac  bytesReceivedOK  ETV
167	7917757 264 73630 151980 45.029535960722 82.57365496602 9 40 616 3042 1385548
vector 171  VoIPMCoAMulti.R1.eth[2].mac  framesPassedToHL  ETV
171	7918021 248 73630 151980 45.029535960722 82.57365496602 9 1 9 45 285
vector 132  VoIPMCoAMulti.MN[0].wlan[2].radio  "MAC loss rate"  ETV
132	7376504 2048 74500 286371 45.473838023248 156.045707518971 70 0 0 0 0
vector 64  VoIPMCoAMulti.HA.eth[0].queue  "queue length"  ETV
64	165234 234 75628 347024 46.0503216 190.0503888 10 0 1 5 5
vector 15  VoIPMCoAMulti.Ra.eth[1].queue  "queue length"  ETV
15	36133 179 85503 159125 50.5407776 86.0413408 8 0 1 4 4
vector 227  VoIPMCoAMulti.Rb.eth[1].queue  "queue length"  ETV
227	15534161 194 86837 291809 51.0806032 159.0806432 8 0 1 4 4
vector 199  VoIPMCoAMulti.AP_2.wlan.radio  "MAC loss rate"  ETV
199	15112052 58 111709 162341 63.062904880882 87.562797055596 2 0 0 0 0
